<VTKFile type="PolyData" version="0.1" byte_order="LittleEndian" header_type="UInt64">
  <PolyData>
    <Piece NumberOfPoints="49" NumberOfVerts="0" NumberOfLines="0" NumberOfStrips="0" NumberOfPolys="94">
      <PointData>
      </PointData>
      <CellData Scalars="STLSolidLabeling">
        <DataArray type="Float32" Name="STLSolidLabeling" format="ascii" RangeMin="0" RangeMax="0">
          0 0 0 0 0 0
          0 0 0 0 0 0
          0 0 0 0 0 0
          0 0 0 0 0 0
          0 0 0 0 0 0
          0 0 0 0 0 0
          0 0 0 0 0 0
          0 0 0 0 0 0
          0 0 0 0 0 0
          0 0 0 0 0 0
          0 0 0 0 0 0
          0 0 0 0 0 0
          0 0 0 0 0 0
          0 0 0 0 0 0
          0 0 0 0 0 0
          0 0 0 0
        </DataArray>
      </CellData>
      <Points>
        <DataArray type="Float32" Name="Points" NumberOfComponents="3" format="ascii" RangeMin="0.019464893333" RangeMax="0.047052877603">
          -0.022002991289 0.0054422863759 0.021827435121 -0.022067854181 0.0019401421305 0.023383751512
          -0.01951463148 0.0032798778266 0.019444424659 -0.021110324189 0.00041655919631 0.021625306457
          -0.017071673647 -0.0010540627409 0.016569230705 -0.019354822114 -0.0022943660151 0.020620977506
          -0.016363911331 0.0014075186336 0.012428401038 -0.018672838807 0.0060029551387 0.016261829063
          -0.020770987496 0.0078149111941 0.018057875335 -0.024207692593 0.0028625363484 0.021100996062
          -0.024628112093 0.0048717088066 0.019508814439 -0.022969979793 0.0070686200634 0.017241880298
          -0.021164096892 -0.0039165988564 0.026339519769 -0.023204816505 -0.0020214302931 0.027081018314
          -0.025597488508 -0.0023457400966 0.026487691328 -0.018117427826 -0.0051961108111 0.019399050623
          -0.016081059352 -0.0042726797983 0.016207404435 -0.020804679021 -0.0072574568912 0.024286784232
          -0.01570302248 -0.0014390288852 0.011411676183 -0.02028468065 0.00084450741997 0.012058665045
          -0.021526636556 0.0046964650974 0.014739234932 -0.025456681848 0.00043432504754 0.017970371991
          -0.025781277567 0.0015330058523 0.015324915759 -0.024766983464 0.0035423568916 0.013320317492
          -0.026549890637 -0.0041879722849 0.024599218741 -0.023969080299 -0.0046326024458 0.030333448201
          -0.023298284039 -0.0066411281005 0.029679514468 -0.026536537334 -0.0049146027304 0.030119307339
          -0.022722553462 -0.010788482614 0.027817387134 -0.027506202459 -0.0071417214349 0.029448891059
          -0.019860729575 -0.0045012156479 0.01472010836 -0.021056164056 -0.0054975426756 0.017591977492
          -0.023397130892 -0.0073209018447 0.023097695783 -0.018954284489 -0.0032069797162 0.011024199426
          -0.025071807206 -0.010211332701 0.027141980827 -0.023716341704 -0.00093907659175 0.01095189061
          -0.02425895445 -0.0026556206867 0.016973890364 -0.024284884334 -0.0012725862907 0.014211338945
          -0.025714017451 -0.0062429872341 0.023561483249 -0.026895103976 -0.0091156521812 0.028065390885
          -0.027634389699 -0.0076563870534 0.035120740533 -0.023823292926 -0.0096541810781 0.031906310469
          -0.028537657112 -0.0085765104741 0.033152390271 -0.024882961065 -0.012970636599 0.031558323652
          -0.026816442609 -0.013454765081 0.031660344452 -0.027710271999 -0.01135785412 0.031959097832
          -0.027991633862 -0.010491147637 0.035982176661 -0.028455588967 -0.012307074852 0.034559205174
          -0.027799639851 -0.014003008604 0.0352855362
        </DataArray>
      </Points>
      <Verts>
        <DataArray type="Int64" Name="connectivity" format="ascii" RangeMin="1e+299" RangeMax="-1e+299">
        </DataArray>
        <DataArray type="Int64" Name="offsets" format="ascii" RangeMin="1e+299" RangeMax="-1e+299">
        </DataArray>
      </Verts>
      <Lines>
        <DataArray type="Int64" Name="connectivity" format="ascii" RangeMin="1e+299" RangeMax="-1e+299">
        </DataArray>
        <DataArray type="Int64" Name="offsets" format="ascii" RangeMin="1e+299" RangeMax="-1e+299">
        </DataArray>
      </Lines>
      <Strips>
        <DataArray type="Int64" Name="connectivity" format="ascii" RangeMin="1e+299" RangeMax="-1e+299">
        </DataArray>
        <DataArray type="Int64" Name="offsets" format="ascii" RangeMin="1e+299" RangeMax="-1e+299">
        </DataArray>
      </Strips>
      <Polys>
        <DataArray type="Int64" Name="connectivity" format="ascii" RangeMin="0" RangeMax="48">
          0 1 2 3 2 1
          4 2 5 3 5 2
          6 7 4 2 4 7
          0 2 8 7 8 2
          1 0 9 10 9 0
          0 8 10 11 10 8
          12 3 13 1 13 3
          9 14 1 13 1 14
          3 12 5 5 15 4
          4 15 16 12 17 5
          15 5 17 16 18 4
          6 4 18 19 6 18
          6 19 7 20 7 19
          7 20 8 8 20 11
          9 10 21 22 21 10
          11 23 10 22 10 23
          21 24 9 14 9 24
          11 20 23 13 25 12
          12 25 26 27 25 14
          13 14 25 28 17 26
          12 26 17 14 24 27
          29 27 24 16 15 30
          31 30 15 31 15 32
          17 32 15 16 30 18
          18 30 33 17 28 32
          34 32 28 19 18 33
          33 35 19 35 23 19
          19 23 20 36 21 37
          22 37 21 35 37 23
          22 23 37 21 36 24
          38 24 36 29 24 39
          39 24 38 40 41 25
          26 25 41 42 40 27
          25 27 40 26 41 28
          43 28 41 27 29 42
          28 43 34 44 34 43
          42 29 45 39 45 29
          36 31 38 32 38 31
          31 36 30 37 30 36
          30 37 33 35 33 37
          32 34 38 39 38 34
          34 44 39 39 44 45
          40 46 41 40 42 46
          47 46 42 48 43 41
          41 46 48 42 45 47
          48 44 43 47 45 44
          48 47 44 48 46 47
        </DataArray>
        <DataArray type="Int64" Name="offsets" format="ascii" RangeMin="3" RangeMax="282">
          3 6 9 12 15 18
          21 24 27 30 33 36
          39 42 45 48 51 54
          57 60 63 66 69 72
          75 78 81 84 87 90
          93 96 99 102 105 108
          111 114 117 120 123 126
          129 132 135 138 141 144
          147 150 153 156 159 162
          165 168 171 174 177 180
          183 186 189 192 195 198
          201 204 207 210 213 216
          219 222 225 228 231 234
          237 240 243 246 249 252
          255 258 261 264 267 270
          273 276 279 282
        </DataArray>
      </Polys>
    </Piece>
  </PolyData>
</VTKFile>
