<VTKFile type="PolyData" version="0.1" byte_order="LittleEndian" header_type="UInt64">
  <PolyData>
    <Piece NumberOfPoints="78" NumberOfVerts="0" NumberOfLines="0" NumberOfStrips="0" NumberOfPolys="152">
      <PointData>
      </PointData>
      <CellData Scalars="STLSolidLabeling">
        <DataArray type="Float32" Name="STLSolidLabeling" format="ascii" RangeMin="0" RangeMax="0">
          0 0 0 0 0 0
          0 0 0 0 0 0
          0 0 0 0 0 0
          0 0 0 0 0 0
          0 0 0 0 0 0
          0 0 0 0 0 0
          0 0 0 0 0 0
          0 0 0 0 0 0
          0 0 0 0 0 0
          0 0 0 0 0 0
          0 0 0 0 0 0
          0 0 0 0 0 0
          0 0 0 0 0 0
          0 0 0 0 0 0
          0 0 0 0 0 0
          0 0 0 0 0 0
          0 0 0 0 0 0
          0 0 0 0 0 0
          0 0 0 0 0 0
          0 0 0 0 0 0
          0 0 0 0 0 0
          0 0 0 0 0 0
          0 0 0 0 0 0
          0 0 0 0 0 0
          0 0 0 0 0 0
          0 0
        </DataArray>
      </CellData>
      <Points>
        <DataArray type="Float32" Name="Points" NumberOfComponents="3" format="ascii" RangeMin="0.0070181311349" RangeMax="0.060633467467">
          0.011691145599 -0.047493495047 0.0076399892569 0.013446146622 -0.054774485528 0.0067659895867
          0.011243145913 -0.048410490155 0.0042809890583 0.014165146276 -0.054867498577 0.0052959891036
          0.010871145874 -0.040416490287 0.0072759892792 0.0088351462036 -0.042000494897 0.0039509888738
          0.0094411466271 -0.051631487906 0.0048539889976 0.008355146274 -0.045148491859 0.0035129885655
          0.0079781450331 -0.038562487811 0.0024129885715 0.011462146416 -0.052847497165 0.0095599889755
          0.0094371456653 -0.04638749361 0.0091019887477 0.0094991456717 -0.039275486022 0.0089509896934
          0.0087311454117 -0.058701492846 0.0098329894245 0.0090871453285 -0.058609493077 0.0062349885702
          0.0092161465436 -0.03442048654 0.003057989059 0.0099561456591 -0.033225487918 0.006075989455
          0.0084321461618 -0.031889487058 0.0014529888285 0.0092381462455 -0.032267492265 0.0087879896164
          0.0056001455523 -0.044947490096 0.0046769892797 0.0069171465002 -0.051647491753 0.0050179893151
          0.0047751455568 -0.038209486753 0.0039549889043 0.0046811453067 -0.03153148666 0.0024289886933
          0.012125145644 -0.054534487426 0.015216989443 0.0090951453894 -0.048217490315 0.014641989022
          0.0071551459841 -0.041286490858 0.013614989817 0.0082361456007 -0.058581493795 0.01238998957
          0.0080591458827 -0.033835489303 0.013423988596 0.003583145095 -0.056865490973 0.012200988829
          0.0070741451345 -0.058799497783 0.0073849894106 0.0073901447468 -0.058527491987 0.014011988416
          0.0049501447938 -0.052433498204 0.0076859891415 0.010407146066 -0.025915494189 0.0055409893394
          0.010392146185 -0.026730490848 0.0019449888496 0.0088581461459 -0.025228491053 0.00037398922723
          0.00958314538 -0.025274490938 0.0086019895971 0.0053031449206 -0.024833491072 0.0009659890784
          0.0082321465015 -0.026466494426 0.012890988961 0.0043311449699 -0.045470491052 0.0075909886509
          0.0030891455244 -0.038699489087 0.0071709882468 0.00246614567 -0.031879488379 0.0063869897276
          0.0024051449727 -0.024972489104 0.0055409893394 0.0071291453205 -0.051847495139 0.014263989404
          0.0066751460545 -0.045181490481 0.013788988814 0.0063081453554 -0.038526486605 0.013307988644
          0.0057781455107 -0.031818490475 0.012829989195 0.0055381455459 -0.025112492964 0.01248398982
          0.0046421452425 -0.050536490977 0.011460989714 0.0042031449266 -0.044162489474 0.011549988762
          0.011926146224 -0.019530488178 0.0009409886552 0.01199314557 -0.018799489364 0.0042649889365
          0.0097021460533 -0.018730489537 -0.00113501132 0.010873146355 -0.018290488049 0.0082409884781
          0.0059621450491 -0.018142489716 -0.00040601112414 0.0092111453414 -0.019041491672 0.012138988823
          0.0022821452003 -0.018085492775 0.0047419890761 0.0069611459039 -0.018617494032 0.012864988297
          0.0032931452151 -0.037779491395 0.011499989778 0.0027531457599 -0.031402487308 0.010842988268
          0.0027631453704 -0.024999490008 0.01018598862 0.0027421449777 -0.018578490242 0.0095699895173
          0.014774145558 -0.01278248895 0.00049198872875 0.015607146546 -0.012618486769 0.0035779892933
          0.011544145644 -0.012436491437 -0.0023590109777 0.014966145158 -0.01299448777 0.0086399894208
          0.0054291454144 -0.011612487026 -0.0023760113399 0.01275414601 -0.012820486911 0.013079989702
          0.002361145569 -0.011252489872 0.0035559886601 0.0074551454745 -0.012060490437 0.013911988586
          0.0024201457854 -0.012182486244 0.0089479889721 0.014238145202 -0.005577489268 -0.0011180109577
          0.016211146489 -0.0057454924099 0.0022589887958 0.01527714543 -0.006043493282 0.007998989895
          0.0066471449099 -0.0050034890883 -0.0015500114532 0.013791145757 -0.0056234891526 0.012522989884
          0.0035961454269 -0.0044594923966 0.0040539894253 0.0082911457866 -0.0055484916084 0.013303989545
          0.0035411452409 -0.0058494950645 0.0090189892799 0.01054514572 -0.0066754887812 0.0049549890682
        </DataArray>
      </Points>
      <Verts>
        <DataArray type="Int64" Name="connectivity" format="ascii" RangeMin="1e+299" RangeMax="-1e+299">
        </DataArray>
        <DataArray type="Int64" Name="offsets" format="ascii" RangeMin="1e+299" RangeMax="-1e+299">
        </DataArray>
      </Verts>
      <Lines>
        <DataArray type="Int64" Name="connectivity" format="ascii" RangeMin="1e+299" RangeMax="-1e+299">
        </DataArray>
        <DataArray type="Int64" Name="offsets" format="ascii" RangeMin="1e+299" RangeMax="-1e+299">
        </DataArray>
      </Lines>
      <Strips>
        <DataArray type="Int64" Name="connectivity" format="ascii" RangeMin="1e+299" RangeMax="-1e+299">
        </DataArray>
        <DataArray type="Int64" Name="offsets" format="ascii" RangeMin="1e+299" RangeMax="-1e+299">
        </DataArray>
      </Strips>
      <Polys>
        <DataArray type="Int64" Name="connectivity" format="ascii" RangeMin="0" RangeMax="77">
          0 1 2 3 2 1
          4 0 5 2 5 0
          3 6 2 7 2 6
          2 7 5 7 8 5
          1 0 9 10 9 0
          0 4 10 11 10 4
          1 9 12 3 1 12
          12 13 3 13 6 3
          5 14 4 15 4 14
          16 14 8 8 14 5
          17 11 15 4 15 11
          18 7 19 6 19 7
          20 8 18 7 18 8
          6 13 19 21 16 20
          8 20 16 22 9 23
          10 23 9 23 10 24
          11 24 10 22 25 9
          12 9 25 24 11 26
          17 26 11 27 28 29
          28 12 29 29 12 25
          12 28 13 19 13 30
          28 30 13 31 15 32
          15 14 32 33 32 16
          14 16 32 34 17 31
          31 17 15 21 35 16
          33 16 35 26 17 36
          34 36 17 30 37 19
          37 18 19 20 18 38
          37 38 18 21 20 39
          39 20 38 35 21 40
          39 40 21 22 23 41
          42 41 23 23 24 42
          42 24 43 22 29 25
          22 41 29 44 43 26
          26 43 24 45 44 36
          44 26 36 28 27 30
          30 27 46 29 41 27
          27 41 46 47 37 46
          46 37 30 32 48 31
          49 31 48 50 48 33
          32 33 48 49 51 31
          34 31 51 50 33 52
          35 52 33 36 34 53
          51 53 34 52 35 54
          40 54 35 36 53 45
          55 45 53 56 38 47
          37 47 38 38 56 39
          57 39 56 40 39 58
          57 58 39 54 40 59
          58 59 40 41 42 46
          47 46 42 56 47 43
          42 43 47 57 56 44
          43 44 56 44 45 57
          45 58 57 55 59 45
          58 45 59 48 60 49
          61 49 60 60 48 62
          50 62 48 61 63 49
          51 49 63 64 62 52
          50 52 62 63 65 51
          53 51 65 64 52 66
          66 52 54 65 67 53
          55 53 67 66 54 68
          59 68 54 67 68 55
          59 55 68 69 70 60
          61 60 70 69 60 62
          70 71 61 63 61 71
          69 62 72 64 72 62
          65 63 73 71 73 63
          64 66 72 74 72 66
          73 75 65 67 65 75
          68 76 66 76 74 66
          68 67 76 75 76 67
          69 72 77 70 69 77
          71 70 77 73 71 77
          72 74 77 75 73 77
          74 76 77 76 75 77
        </DataArray>
        <DataArray type="Int64" Name="offsets" format="ascii" RangeMin="3" RangeMax="456">
          3 6 9 12 15 18
          21 24 27 30 33 36
          39 42 45 48 51 54
          57 60 63 66 69 72
          75 78 81 84 87 90
          93 96 99 102 105 108
          111 114 117 120 123 126
          129 132 135 138 141 144
          147 150 153 156 159 162
          165 168 171 174 177 180
          183 186 189 192 195 198
          201 204 207 210 213 216
          219 222 225 228 231 234
          237 240 243 246 249 252
          255 258 261 264 267 270
          273 276 279 282 285 288
          291 294 297 300 303 306
          309 312 315 318 321 324
          327 330 333 336 339 342
          345 348 351 354 357 360
          363 366 369 372 375 378
          381 384 387 390 393 396
          399 402 405 408 411 414
          417 420 423 426 429 432
          435 438 441 444 447 450
          453 456
        </DataArray>
      </Polys>
    </Piece>
  </PolyData>
</VTKFile>
