<VTKFile type="PolyData" version="1.0" byte_order="LittleEndian" header_type="UInt64">
  <PolyData>
    <Piece NumberOfPoints="78" NumberOfVerts="0" NumberOfLines="0" NumberOfStrips="0" NumberOfPolys="152">
      <PointData>
      </PointData>
      <CellData Scalars="STLSolidLabeling">
        <DataArray type="Float32" Name="STLSolidLabeling" format="ascii" RangeMin="0" RangeMax="0">
          0 0 0 0 0 0
          0 0 0 0 0 0
          0 0 0 0 0 0
          0 0 0 0 0 0
          0 0 0 0 0 0
          0 0 0 0 0 0
          0 0 0 0 0 0
          0 0 0 0 0 0
          0 0 0 0 0 0
          0 0 0 0 0 0
          0 0 0 0 0 0
          0 0 0 0 0 0
          0 0 0 0 0 0
          0 0 0 0 0 0
          0 0 0 0 0 0
          0 0 0 0 0 0
          0 0 0 0 0 0
          0 0 0 0 0 0
          0 0 0 0 0 0
          0 0 0 0 0 0
          0 0 0 0 0 0
          0 0 0 0 0 0
          0 0 0 0 0 0
          0 0 0 0 0 0
          0 0 0 0 0 0
          0 0
        </DataArray>
      </CellData>
      <Points>
        <DataArray type="Float32" Name="Points" NumberOfComponents="3" format="ascii" RangeMin="0.013828356686" RangeMax="0.055847376715">
          0.022155646235 -0.039993498474 0.0076399892569 0.023910647258 -0.047274488956 0.0067659895867
          0.021707646549 -0.040910493582 0.0042809890583 0.024629646912 -0.047367502004 0.0052959891036
          0.02133564651 -0.032916493714 0.0072759892792 0.019299646839 -0.034500498325 0.0039509888738
          0.019905647263 -0.044131491333 0.0048539889976 0.01881964691 -0.037648495287 0.0035129885655
          0.018442645669 -0.031062489375 0.0024129885715 0.021926647052 -0.045347500592 0.0095599889755
          0.019901646301 -0.038887497038 0.0091019887477 0.019963646308 -0.03177548945 0.0089509896934
          0.019195646048 -0.051201496273 0.0098329894245 0.019551645964 -0.051109496504 0.0062349885702
          0.019680647179 -0.026920488104 0.003057989059 0.020420646295 -0.025725489482 0.006075989455
          0.018896646798 -0.024389488623 0.0014529888285 0.019702646881 -0.024767493829 0.0087879896164
          0.016064645723 -0.037447493523 0.0046769892797 0.017381647602 -0.04414749518 0.0050179893151
          0.015239646658 -0.030709488317 0.0039549889043 0.015145646408 -0.024031488225 0.0024289886933
          0.02258964628 -0.047034490854 0.015216989443 0.019559646025 -0.040717493743 0.014641989022
          0.017619647086 -0.033786494285 0.013614989817 0.018700646237 -0.051081497222 0.01238998957
          0.018523646519 -0.026335490867 0.013423988596 0.014047645964 -0.0493654944 0.012200988829
          0.017538646236 -0.05129950121 0.0073849894106 0.017854645848 -0.051027495414 0.014011988416
          0.015414645895 -0.044933501631 0.0076859891415 0.020871646702 -0.018415493891 0.0055409893394
          0.020856646821 -0.01923049055 0.0019449888496 0.019322646782 -0.017728490755 0.00037398922723
          0.020047646016 -0.01777449064 0.0086019895971 0.015767645091 -0.017333490774 0.0009659890784
          0.018696647137 -0.018966494128 0.012890988961 0.014795646071 -0.037970494479 0.0075909886509
          0.013553646393 -0.031199490651 0.0071709882468 0.012930646539 -0.024379489943 0.0063869897276
          0.012869645841 -0.017472488806 0.0055409893394 0.017593646422 -0.044347498566 0.014263989404
          0.017139647156 -0.037681493908 0.013788988814 0.016772646457 -0.03102648817 0.013307988644
          0.016242645681 -0.02431849204 0.012829989195 0.016002645716 -0.017612492666 0.01248398982
          0.015106646344 -0.043036494404 0.011460989714 0.014667646028 -0.036662492901 0.011549988762
          0.02239064686 -0.01203048788 0.0009409886552 0.022457646206 -0.011299489066 0.0042649889365
          0.020166646689 -0.011230489239 -0.00113501132 0.021337646991 -0.010790487751 0.0082409884781
          0.016426645219 -0.010642489418 -0.00040601112414 0.019675645977 -0.011541491374 0.012138988823
          0.012746646069 -0.010585492477 0.0047419890761 0.017425647005 -0.011117493734 0.012864988297
          0.013757646084 -0.030279492959 0.011499989778 0.013217646629 -0.023902488872 0.010842988268
          0.013227646239 -0.01749948971 0.01018598862 0.013206645846 -0.011078489944 0.0095699895173
          0.025238646194 -0.0052824900486 0.00049198872875 0.026071647182 -0.0051184878685 0.0035779892933
          0.02200864628 -0.0049364925362 -0.0023590109777 0.025430645794 -0.0054944888689 0.0086399894208
          0.015893645585 -0.0041124881245 -0.0023760113399 0.023218646646 -0.0053204880096 0.013079989702
          0.012825646438 -0.0037524907384 0.0035559886601 0.017919646576 -0.0045604915358 0.013911988586
          0.012884646654 -0.0046824873425 0.0089479889721 0.024702645838 0.0019225102151 -0.0011180109577
          0.026675647125 0.0017545070732 0.0022589887958 0.025741646066 0.0014565062011 0.007998989895
          0.017111646011 0.0024965105113 -0.0015500114532 0.024255646393 0.0018765103305 0.012522989884
          0.014060646296 0.003040507203 0.0040539894253 0.018755646423 0.0019515078748 0.013303989545
          0.01400564611 0.0016505044186 0.0090189892799 0.021009646356 0.00082451070193 0.0049549890682
        </DataArray>
      </Points>
      <Verts>
        <DataArray type="Int64" Name="connectivity" format="ascii" RangeMin="1e+299" RangeMax="-1e+299">
        </DataArray>
        <DataArray type="Int64" Name="offsets" format="ascii" RangeMin="1e+299" RangeMax="-1e+299">
        </DataArray>
      </Verts>
      <Lines>
        <DataArray type="Int64" Name="connectivity" format="ascii" RangeMin="1e+299" RangeMax="-1e+299">
        </DataArray>
        <DataArray type="Int64" Name="offsets" format="ascii" RangeMin="1e+299" RangeMax="-1e+299">
        </DataArray>
      </Lines>
      <Strips>
        <DataArray type="Int64" Name="connectivity" format="ascii" RangeMin="1e+299" RangeMax="-1e+299">
        </DataArray>
        <DataArray type="Int64" Name="offsets" format="ascii" RangeMin="1e+299" RangeMax="-1e+299">
        </DataArray>
      </Strips>
      <Polys>
        <DataArray type="Int64" Name="connectivity" format="ascii" RangeMin="0" RangeMax="77">
          0 1 2 3 2 1
          4 0 5 2 5 0
          3 6 2 7 2 6
          2 7 5 7 8 5
          1 0 9 10 9 0
          0 4 10 11 10 4
          1 9 12 3 1 12
          12 13 3 13 6 3
          5 14 4 15 4 14
          16 14 8 8 14 5
          17 11 15 4 15 11
          18 7 19 6 19 7
          20 8 18 7 18 8
          6 13 19 21 16 20
          8 20 16 22 9 23
          10 23 9 23 10 24
          11 24 10 22 25 9
          12 9 25 24 11 26
          17 26 11 27 28 29
          28 12 29 29 12 25
          12 28 13 19 13 30
          28 30 13 31 15 32
          15 14 32 33 32 16
          14 16 32 34 17 31
          31 17 15 21 35 16
          33 16 35 26 17 36
          34 36 17 30 37 19
          37 18 19 20 18 38
          37 38 18 21 20 39
          39 20 38 35 21 40
          39 40 21 22 23 41
          42 41 23 23 24 42
          42 24 43 22 29 25
          22 41 29 44 43 26
          26 43 24 45 44 36
          44 26 36 28 27 30
          30 27 46 29 41 27
          27 41 46 47 37 46
          46 37 30 32 48 31
          49 31 48 50 48 33
          32 33 48 49 51 31
          34 31 51 50 33 52
          35 52 33 36 34 53
          51 53 34 52 35 54
          40 54 35 36 53 45
          55 45 53 56 38 47
          37 47 38 38 56 39
          57 39 56 40 39 58
          57 58 39 54 40 59
          58 59 40 41 42 46
          47 46 42 56 47 43
          42 43 47 57 56 44
          43 44 56 44 45 57
          45 58 57 55 59 45
          58 45 59 48 60 49
          61 49 60 60 48 62
          50 62 48 61 63 49
          51 49 63 64 62 52
          50 52 62 63 65 51
          53 51 65 64 52 66
          66 52 54 65 67 53
          55 53 67 66 54 68
          59 68 54 67 68 55
          59 55 68 69 70 60
          61 60 70 69 60 62
          70 71 61 63 61 71
          69 62 72 64 72 62
          65 63 73 71 73 63
          64 66 72 74 72 66
          73 75 65 67 65 75
          68 76 66 76 74 66
          68 67 76 75 76 67
          69 72 77 70 69 77
          71 70 77 73 71 77
          72 74 77 75 73 77
          74 76 77 76 75 77
        </DataArray>
        <DataArray type="Int64" Name="offsets" format="ascii" RangeMin="3" RangeMax="456">
          3 6 9 12 15 18
          21 24 27 30 33 36
          39 42 45 48 51 54
          57 60 63 66 69 72
          75 78 81 84 87 90
          93 96 99 102 105 108
          111 114 117 120 123 126
          129 132 135 138 141 144
          147 150 153 156 159 162
          165 168 171 174 177 180
          183 186 189 192 195 198
          201 204 207 210 213 216
          219 222 225 228 231 234
          237 240 243 246 249 252
          255 258 261 264 267 270
          273 276 279 282 285 288
          291 294 297 300 303 306
          309 312 315 318 321 324
          327 330 333 336 339 342
          345 348 351 354 357 360
          363 366 369 372 375 378
          381 384 387 390 393 396
          399 402 405 408 411 414
          417 420 423 426 429 432
          435 438 441 444 447 450
          453 456
        </DataArray>
      </Polys>
    </Piece>
  </PolyData>
</VTKFile>
