<VTKFile type="PolyData" version="0.1" byte_order="LittleEndian" header_type="UInt64">
  <PolyData>
    <Piece NumberOfPoints="42" NumberOfVerts="0" NumberOfLines="0" NumberOfStrips="0" NumberOfPolys="80">
      <PointData>
      </PointData>
      <CellData Scalars="STLSolidLabeling">
        <DataArray type="Float32" Name="STLSolidLabeling" format="ascii" RangeMin="0" RangeMax="0">
          0 0 0 0 0 0
          0 0 0 0 0 0
          0 0 0 0 0 0
          0 0 0 0 0 0
          0 0 0 0 0 0
          0 0 0 0 0 0
          0 0 0 0 0 0
          0 0 0 0 0 0
          0 0 0 0 0 0
          0 0 0 0 0 0
          0 0 0 0 0 0
          0 0 0 0 0 0
          0 0 0 0 0 0
          0 0
        </DataArray>
      </CellData>
      <Points>
        <DataArray type="Float32" Name="Points" NumberOfComponents="3" format="ascii" RangeMin="0.0066605140104" RangeMax="0.033862579251">
          0.00081650022184 -0.03139700368 0.0098390011117 0.0061484999023 -0.0052420021966 0.01294799801
          -0.0024434998631 -0.005234000273 0.012154999189 0.0054545002058 -0.0051859961823 0.00777599914
          0.0011545002926 -0.0051989974454 0.00400000019 -0.0027534996625 -0.0051370011643 0.0079579977319
          0.0041765002534 -0.0094590010121 0.0085569983348 0.0041574998759 -0.0096249999478 0.012930001132
          0.0022715004161 -0.0049999998882 0.015013999306 0.0019555003382 -0.0090400027111 0.01447399985
          0.0016825002385 -0.0097449989989 0.0047349999659 -0.0022824998014 -0.0095320018008 0.008200998418
          -0.0019854998682 -0.0094469981268 0.011746997945 0.0035365002695 -0.030836006626 0.012345998548
          0.0016175003257 -0.030180996284 0.013091999106 0.0005095002125 -0.031100993976 0.0099630011246
          0.0024265001994 -0.028614005074 0.0071209999733 -0.0012614997104 -0.027214994654 0.0099889999256
          0.0044835000299 -0.027135005221 0.01100199949 0.0029985003639 -0.013755996712 0.0094939982519
          0.0034515003208 -0.014260997064 0.012967999093 0.0017585002352 -0.013284002431 0.014050998725
          0.0013415002031 -0.014346999116 0.0062029990368 -0.0012284998083 -0.013565001078 0.012586000375
          -0.0017674997216 -0.013918002136 0.0083409985527 0.0067535000853 -0.027622004971 0.014216999523
          0.0034925004002 -0.030163994059 0.014987000264 0.0022575003095 -0.030129006132 0.014720999636
          1.8500199076e-005 -0.026322996244 0.012581001036 0.0022275003139 -0.025888001546 0.014623998664
          -0.00060649972875 -0.022118007764 0.01291900035 -0.0016524997773 -0.022756000981 0.0095500005409
          0.0018005003221 -0.023910006508 0.0080429976806 0.0034635004122 -0.022673999891 0.010469998233
          0.0045314999297 -0.023794999346 0.014189000241 0.0034745002631 -0.019325001165 0.013680999167
          0.0028015004937 -0.018260998651 0.0099380007014 0.0013775003608 -0.017477003857 0.014011000283
          0.001195500372 -0.01917800121 0.0069719995372 -0.00080949976109 -0.017796000466 0.013098998927
          -0.0016494997544 -0.018324999139 0.0090639991686 0.0018465002067 -0.021672999486 0.014347999357
        </DataArray>
      </Points>
      <Verts>
        <DataArray type="Int64" Name="connectivity" format="ascii" RangeMin="1e+299" RangeMax="-1e+299">
        </DataArray>
        <DataArray type="Int64" Name="offsets" format="ascii" RangeMin="1e+299" RangeMax="-1e+299">
        </DataArray>
      </Verts>
      <Lines>
        <DataArray type="Int64" Name="connectivity" format="ascii" RangeMin="1e+299" RangeMax="-1e+299">
        </DataArray>
        <DataArray type="Int64" Name="offsets" format="ascii" RangeMin="1e+299" RangeMax="-1e+299">
        </DataArray>
      </Lines>
      <Strips>
        <DataArray type="Int64" Name="connectivity" format="ascii" RangeMin="1e+299" RangeMax="-1e+299">
        </DataArray>
        <DataArray type="Int64" Name="offsets" format="ascii" RangeMin="1e+299" RangeMax="-1e+299">
        </DataArray>
      </Strips>
      <Polys>
        <DataArray type="Int64" Name="connectivity" format="ascii" RangeMin="0" RangeMax="41">
          0 1 2 1 3 2
          3 4 2 5 2 4
          3 1 6 7 6 1
          1 8 7 7 8 9
          4 3 10 6 10 3
          10 11 4 5 4 11
          5 11 2 12 2 11
          8 2 9 12 9 2
          13 14 0 15 0 14
          16 0 17 15 17 0
          16 18 0 13 0 18
          6 7 19 20 19 7
          9 21 7 20 7 21
          10 6 22 19 22 6
          9 12 21 21 12 23
          10 22 11 22 24 11
          23 12 24 24 12 11
          18 25 13 26 13 25
          13 26 14 27 14 26
          28 14 29 27 29 14
          15 14 17 28 17 14
          30 31 28 28 31 17
          16 17 32 31 32 17
          16 32 18 33 18 32
          33 34 18 25 18 34
          35 36 20 20 36 19
          21 37 20 20 37 35
          19 36 22 38 22 36
          21 23 37 39 37 23
          38 40 22 24 22 40
          24 40 23 39 23 40
          25 29 26 27 26 29
          41 29 34 25 34 29
          28 29 30 41 30 29
          30 41 39 41 37 39
          39 40 30 31 30 40
          32 31 38 40 38 31
          36 33 38 32 38 33
          34 33 35 36 35 33
          34 35 41 37 41 35
        </DataArray>
        <DataArray type="Int64" Name="offsets" format="ascii" RangeMin="3" RangeMax="240">
          3 6 9 12 15 18
          21 24 27 30 33 36
          39 42 45 48 51 54
          57 60 63 66 69 72
          75 78 81 84 87 90
          93 96 99 102 105 108
          111 114 117 120 123 126
          129 132 135 138 141 144
          147 150 153 156 159 162
          165 168 171 174 177 180
          183 186 189 192 195 198
          201 204 207 210 213 216
          219 222 225 228 231 234
          237 240
        </DataArray>
      </Polys>
    </Piece>
  </PolyData>
</VTKFile>
