<VTKFile type="PolyData" version="0.1" byte_order="LittleEndian" header_type="UInt64">
  <PolyData>
    <Piece NumberOfPoints="42" NumberOfVerts="0" NumberOfLines="0" NumberOfStrips="0" NumberOfPolys="80">
      <PointData>
      </PointData>
      <CellData Scalars="STLSolidLabeling">
        <DataArray type="Float32" Name="STLSolidLabeling" format="ascii" RangeMin="0" RangeMax="0">
          0 0 0 0 0 0
          0 0 0 0 0 0
          0 0 0 0 0 0
          0 0 0 0 0 0
          0 0 0 0 0 0
          0 0 0 0 0 0
          0 0 0 0 0 0
          0 0 0 0 0 0
          0 0 0 0 0 0
          0 0 0 0 0 0
          0 0 0 0 0 0
          0 0 0 0 0 0
          0 0 0 0 0 0
          0 0
        </DataArray>
      </CellData>
      <Points>
        <DataArray type="Float32" Name="Points" NumberOfComponents="3" format="ascii" RangeMin="0.0018017205543" RangeMax="0.033706609753">
          -0.00028599987854 -0.033555995673 -0.0031699999236 0.0042050001211 -0.0011309961556 -0.0011429999722
          -0.0062669999897 -0.0018350015162 -0.0020039998926 0.0033130000811 -0.0014559904812 -0.0074399998412
          -0.0019539999776 -0.0020489972085 -0.011988000013 -0.0066869999282 -0.0020159911364 -0.0071209999733
          0.0020950001199 -0.006698993966 -0.0061960001476 0.0021200000774 -0.0066159944981 -0.00085599999875
          -0.00051899987739 -0.0010000000475 0.0014059999958 -0.00059499987401 -0.0059739928693 0.0010150000453
          -0.00095299986424 -0.0074889939278 -0.01080499962 -0.0057700001635 -0.0073089879006 -0.0065460000187
          -0.0053860000335 -0.0069499891251 -0.0022330000065 0.0030040000565 -0.032499995083 -0.00018499999715
          0.00062200013781 -0.03180199489 0.00070600002073 -0.00068199989619 -0.033210989088 -0.0030350000598
          0.0014360001078 -0.03022599034 -0.006682000123 -0.0031409999356 -0.028618989512 -0.0032329999376
          0.0038590000477 -0.028013987467 -0.00207399996 0.0010010001715 -0.011954991147 -0.0047610001639
          0.0016190001043 -0.012307001278 -0.00050099997316 -0.00050899985945 -0.011177999899 0.00077699997928
          -0.00099899992347 -0.013016996905 -0.008713000454 -0.0041380003095 -0.011844990775 -0.00095299998065
          -0.0048020002432 -0.012593997642 -0.0060970000923 0.0066869999282 -0.028220994398 0.0018469999777
          0.0029200001154 -0.031512986869 0.0029909999575 0.0014100001426 -0.031583990902 0.0026799999177
          -0.0016289998312 -0.027265993878 -0.00014800000645 0.0010450001573 -0.026433987543 0.002286999952
          -0.0027139999438 -0.022177992389 -9.9999999748e-007 -0.0039650001563 -0.023255987093 -0.0040520001203
          0.00031600013608 -0.02449199371 -0.005855999887 0.0022670000326 -0.022700993344 -0.0029990000185
          0.0036840003449 -0.02373999171 0.0015920000151 0.0020460002124 -0.018416998908 0.00069600000279
          0.0011140001006 -0.017419992015 -0.0039260000922 -0.00064799987013 -0.016309989616 0.0010049999692
          -0.00079499988351 -0.018852991983 -0.0074599999934 -0.0032939999364 -0.016925988719 -5.8000001445e-005
          -0.0043100002222 -0.017897991464 -0.0049310000613 0.0002510001359 -0.021353987977 0.0016820000019
        </DataArray>
      </Points>
      <Verts>
        <DataArray type="Int64" Name="connectivity" format="ascii" RangeMin="1e+299" RangeMax="-1e+299">
        </DataArray>
        <DataArray type="Int64" Name="offsets" format="ascii" RangeMin="1e+299" RangeMax="-1e+299">
        </DataArray>
      </Verts>
      <Lines>
        <DataArray type="Int64" Name="connectivity" format="ascii" RangeMin="1e+299" RangeMax="-1e+299">
        </DataArray>
        <DataArray type="Int64" Name="offsets" format="ascii" RangeMin="1e+299" RangeMax="-1e+299">
        </DataArray>
      </Lines>
      <Strips>
        <DataArray type="Int64" Name="connectivity" format="ascii" RangeMin="1e+299" RangeMax="-1e+299">
        </DataArray>
        <DataArray type="Int64" Name="offsets" format="ascii" RangeMin="1e+299" RangeMax="-1e+299">
        </DataArray>
      </Strips>
      <Polys>
        <DataArray type="Int64" Name="connectivity" format="ascii" RangeMin="0" RangeMax="41">
          0 1 2 1 3 2
          3 4 2 5 2 4
          3 1 6 7 6 1
          1 8 7 9 7 8
          4 3 10 6 10 3
          10 11 4 5 4 11
          5 11 2 12 2 11
          8 2 9 12 9 2
          13 14 0 14 15 0
          16 0 17 15 17 0
          16 18 0 13 0 18
          6 7 19 19 7 20
          9 21 7 20 7 21
          10 6 22 19 22 6
          9 12 21 23 21 12
          10 22 11 24 11 22
          23 12 24 11 24 12
          18 25 13 26 13 25
          13 26 14 27 14 26
          28 14 29 27 29 14
          15 14 17 17 14 28
          30 31 28 17 28 31
          16 17 32 31 32 17
          16 32 18 33 18 32
          33 34 18 25 18 34
          35 36 20 19 20 36
          21 37 20 35 20 37
          19 36 22 38 22 36
          21 23 37 37 23 39
          38 40 22 24 22 40
          24 40 23 39 23 40
          25 29 26 29 27 26
          41 29 34 29 25 34
          28 29 30 41 30 29
          30 41 39 37 39 41
          39 40 30 31 30 40
          32 31 38 38 31 40
          36 33 38 32 38 33
          34 33 35 36 35 33
          34 35 41 37 41 35
        </DataArray>
        <DataArray type="Int64" Name="offsets" format="ascii" RangeMin="3" RangeMax="240">
          3 6 9 12 15 18
          21 24 27 30 33 36
          39 42 45 48 51 54
          57 60 63 66 69 72
          75 78 81 84 87 90
          93 96 99 102 105 108
          111 114 117 120 123 126
          129 132 135 138 141 144
          147 150 153 156 159 162
          165 168 171 174 177 180
          183 186 189 192 195 198
          201 204 207 210 213 216
          219 222 225 228 231 234
          237 240
        </DataArray>
      </Polys>
    </Piece>
  </PolyData>
</VTKFile>
