<VTKFile type="PolyData" version="0.1" byte_order="LittleEndian" header_type="UInt64">
  <PolyData>
    <Piece NumberOfPoints="42" NumberOfVerts="0" NumberOfLines="0" NumberOfStrips="0" NumberOfPolys="80">
      <PointData>
      </PointData>
      <CellData Scalars="STLSolidLabeling">
        <DataArray type="Float32" Name="STLSolidLabeling" format="ascii" RangeMin="0" RangeMax="0">
          0 0 0 0 0 0
          0 0 0 0 0 0
          0 0 0 0 0 0
          0 0 0 0 0 0
          0 0 0 0 0 0
          0 0 0 0 0 0
          0 0 0 0 0 0
          0 0 0 0 0 0
          0 0 0 0 0 0
          0 0 0 0 0 0
          0 0 0 0 0 0
          0 0 0 0 0 0
          0 0 0 0 0 0
          0 0
        </DataArray>
      </CellData>
      <Points>
        <DataArray type="Float32" Name="Points" NumberOfComponents="3" format="ascii" RangeMin="0.0074297653286" RangeMax="0.039630483005">
          -0.00071350007784 -0.0396049954 -0.0012289996957 0.0045165000483 -0.0062459888868 0.0039620003663
          -0.0059664999135 -0.006754997652 0.002911999356 0.0036984998733 -0.0060000005178 -0.0023500011303
          -0.0015255002072 -0.0061309966259 -0.0069999997504 -0.0063235000707 -0.0064729931764 -0.0022070002742
          0.0023394997697 -0.011530000716 -0.0016300011193 0.0022974996828 -0.011927995831 0.0036949994974
          -0.00023950020841 -0.0062769982032 0.0064569986425 -0.0004275002284 -0.011394996196 0.0055880001746
          -0.00066750019323 -0.01188999787 -0.0063330014236 -0.0055375001393 -0.012022990733 -0.0021320008673
          -0.0052015003748 -0.012046996504 0.0022020000033 0.0025644998532 -0.038824994117 0.0018850002671
          0.00018550000095 -0.038150001317 0.002809999045 -0.0011035002535 -0.039253998548 -0.0010659996187
          0.0011334997835 -0.035857994109 -0.0043860008009 -0.0034525003284 -0.034443993121 -0.00085200037574
          0.0035504999105 -0.034017000347 0.00044500041986 0.0011034997879 -0.017091993243 -0.00072000030195
          0.001658499823 -0.017850998789 0.0034960000776 -0.00046150002163 -0.016767997295 0.0048509999178
          -0.00087050010916 -0.01780699566 -0.0047820010222 -0.0040845000185 -0.017253000289 0.003019999247
          -0.0046995007433 -0.017553988844 -0.002181999851 0.0063234996051 -0.034625995904 0.0043640001677
          0.002462499775 -0.038088995963 0.0051409988664 0.00095349980984 -0.038114000112 0.0048060002737
          -0.0019485004013 -0.033341992646 0.0023689991795 0.00071449985262 -0.032736990601 0.0049060001038
          -0.0029155001976 -0.028066996485 0.0029919999652 -0.0041405004449 -0.028799999505 -0.0011610001093
          0.00013749963546 -0.029975999147 -0.0030250013806 0.0020934997592 -0.028405997902 1.5999727111e-005
          0.0034274999052 -0.029916990548 0.0045049986802 0.0019254997605 -0.024298001081 0.0041049993597
          0.0010764998151 -0.022832993418 -0.0004130009911 -0.00072450039443 -0.022104997188 0.0045829988085
          -0.00082149996888 -0.023971993476 -0.004093001131 -0.0033725001849 -0.022610995919 0.0034329998307
          -0.0043485001661 -0.023162994534 -0.001525000087 4.8499659897e-005 -0.027406994253 0.0047830003314
        </DataArray>
      </Points>
      <Verts>
        <DataArray type="Int64" Name="connectivity" format="ascii" RangeMin="1e+299" RangeMax="-1e+299">
        </DataArray>
        <DataArray type="Int64" Name="offsets" format="ascii" RangeMin="1e+299" RangeMax="-1e+299">
        </DataArray>
      </Verts>
      <Lines>
        <DataArray type="Int64" Name="connectivity" format="ascii" RangeMin="1e+299" RangeMax="-1e+299">
        </DataArray>
        <DataArray type="Int64" Name="offsets" format="ascii" RangeMin="1e+299" RangeMax="-1e+299">
        </DataArray>
      </Lines>
      <Strips>
        <DataArray type="Int64" Name="connectivity" format="ascii" RangeMin="1e+299" RangeMax="-1e+299">
        </DataArray>
        <DataArray type="Int64" Name="offsets" format="ascii" RangeMin="1e+299" RangeMax="-1e+299">
        </DataArray>
      </Strips>
      <Polys>
        <DataArray type="Int64" Name="connectivity" format="ascii" RangeMin="0" RangeMax="41">
          0 1 2 1 3 2
          3 4 2 5 2 4
          3 1 6 7 6 1
          1 8 7 7 8 9
          4 3 10 6 10 3
          10 11 4 5 4 11
          5 11 2 12 2 11
          8 2 9 12 9 2
          13 14 0 15 0 14
          16 0 17 15 17 0
          18 13 16 0 16 13
          6 7 19 20 19 7
          9 21 7 20 7 21
          10 6 22 19 22 6
          9 12 21 23 21 12
          10 22 11 24 11 22
          23 12 24 11 24 12
          18 25 13 13 25 26
          13 26 14 27 14 26
          28 14 29 27 29 14
          15 14 17 28 17 14
          30 31 28 31 17 28
          16 17 32 31 32 17
          16 32 18 33 18 32
          33 34 18 25 18 34
          35 36 20 19 20 36
          21 37 20 37 35 20
          19 36 22 22 36 38
          21 23 37 37 23 39
          38 40 22 24 22 40
          24 40 23 39 23 40
          25 29 26 27 26 29
          41 29 34 25 34 29
          28 29 30 41 30 29
          30 41 39 37 39 41
          39 40 30 31 30 40
          32 31 38 40 38 31
          36 33 38 32 38 33
          34 33 35 36 35 33
          34 35 41 37 41 35
        </DataArray>
        <DataArray type="Int64" Name="offsets" format="ascii" RangeMin="3" RangeMax="240">
          3 6 9 12 15 18
          21 24 27 30 33 36
          39 42 45 48 51 54
          57 60 63 66 69 72
          75 78 81 84 87 90
          93 96 99 102 105 108
          111 114 117 120 123 126
          129 132 135 138 141 144
          147 150 153 156 159 162
          165 168 171 174 177 180
          183 186 189 192 195 198
          201 204 207 210 213 216
          219 222 225 228 231 234
          237 240
        </DataArray>
      </Polys>
    </Piece>
  </PolyData>
</VTKFile>
