<VTKFile type="PolyData" version="0.1" byte_order="LittleEndian" header_type="UInt64">
  <PolyData>
    <Piece NumberOfPoints="78" NumberOfVerts="0" NumberOfLines="0" NumberOfStrips="0" NumberOfPolys="152">
      <PointData>
      </PointData>
      <CellData Scalars="STLSolidLabeling">
        <DataArray type="Float32" Name="STLSolidLabeling" format="ascii" RangeMin="0" RangeMax="0">
          0 0 0 0 0 0
          0 0 0 0 0 0
          0 0 0 0 0 0
          0 0 0 0 0 0
          0 0 0 0 0 0
          0 0 0 0 0 0
          0 0 0 0 0 0
          0 0 0 0 0 0
          0 0 0 0 0 0
          0 0 0 0 0 0
          0 0 0 0 0 0
          0 0 0 0 0 0
          0 0 0 0 0 0
          0 0 0 0 0 0
          0 0 0 0 0 0
          0 0 0 0 0 0
          0 0 0 0 0 0
          0 0 0 0 0 0
          0 0 0 0 0 0
          0 0 0 0 0 0
          0 0 0 0 0 0
          0 0 0 0 0 0
          0 0 0 0 0 0
          0 0 0 0 0 0
          0 0 0 0 0 0
          0 0
        </DataArray>
      </CellData>
      <Points>
        <DataArray type="Float32" Name="Points" NumberOfComponents="3" format="ascii" RangeMin="0.0056561382223" RangeMax="0.048548992933">
          0.0066825002432 -0.038691993803 0.00067000527633 0.0085614994168 -0.044167999178 -0.00074699457036
          0.006372500211 -0.039094995707 -0.0021559961606 0.0091544995084 -0.04405099526 -0.001946996199
          0.0055804997683 -0.033194992691 0.0010670057964 0.0040135001764 -0.034213993698 -0.0018089965452
          0.0050975000486 -0.041763994843 -0.0020219937433 0.0038134998176 -0.036647994071 -0.0024789937306
          0.0031024999917 -0.031433995813 -0.0027259953786 0.0068224999122 -0.043062996119 0.0017000033986
          0.0047734999098 -0.038107994944 0.0019510060083 0.0043894997798 -0.032554995269 0.0025310039055
          0.004949499853 -0.047804992646 0.0013240061235 0.0052335001528 -0.047352995723 -0.0015899941791
          0.0038614997175 -0.028203999624 -0.001783996122 0.0043934998102 -0.027533000335 0.00079500366701
          0.0030664999504 -0.026118999347 -0.0028449960519 0.0037474997807 -0.027098996565 0.0030890039634
          0.0015504999319 -0.036767993122 -0.0015339956153 0.0030354999471 -0.041939992458 -0.0019079961348
          0.00046449992806 -0.031499993056 -0.0014609948266 -2.0500048777e-005 -0.026156997308 -0.0020439953078
          0.0074674999341 -0.044902998954 0.0061390050687 0.0046055000275 -0.040105994791 0.0062730056234
          0.0025974998716 -0.034721996635 0.0061080050655 0.0045374999754 -0.04799599573 0.0034110031556
          0.0028804999311 -0.02885199897 0.0066950046457 0.00063049991149 -0.046911995858 0.0033930062782
          0.0036014998332 -0.047732997686 -0.00068899552571 0.0038424998056 -0.04816499725 0.0047300052829
          0.0014764999505 -0.042931992561 0.00016900589981 0.0043155001476 -0.021764000878 0.0010850063991
          0.0043534999713 -0.022038994357 -0.0019209936727 0.0030074999668 -0.02080299519 -0.0030609958339
          0.0036024998408 -0.021618997678 0.0036300055217 7.849989197e-005 -0.020761994645 -0.0025669962633
          0.0025714999065 -0.023052996024 0.006991005037 0.00054549996275 -0.037539992481 0.00077500630869
          -0.0008824999677 -0.032300997525 0.0010930045974 -0.0018085000338 -0.026950998232 0.001125004841
          -0.002280500019 -0.021495996043 0.0011180050205 0.0032204999588 -0.043006997555 0.0055930060335
          0.0024434998631 -0.037797998637 0.0058610052802 0.0017364999512 -0.03259299323 0.0061240051873
          0.00089349993505 -0.027355996892 0.0063940049149 0.00028749997728 -0.022115996107 0.0067740050144
          0.0011084999423 -0.041850995272 0.0034240044188 0.00036049995106 -0.036925997585 0.0041230064817
          0.0051664998755 -0.016246994957 -0.002013995545 0.0051764999516 -0.016006996855 0.00076200504554
          0.0033004998695 -0.0155459987 -0.0036399953533 0.0042304997332 -0.01607199572 0.0040370044298
          0.00020849994326 -0.015378993936 -0.0030169964302 0.0029184999876 -0.017142994329 0.0071200043894
          -0.002801500028 -0.016062995419 0.0011480047833 0.0010534998728 -0.017016997561 0.0077350051142
          -0.00077350006904 -0.032005999237 0.0047060032375 -0.0016035001026 -0.027009001002 0.0047980030067
          -0.0019865001086 -0.021959995851 0.0048960042186 -0.0023955001961 -0.016902996227 0.0050290045328
          0.0070815002546 -0.010784995742 -0.0016919963527 0.0077525000088 -0.010916997679 0.00084000517381
          0.004420499783 -0.010418993421 -0.0039999964647 0.0072515001521 -0.011752997525 0.0049140048213
          -0.00062550010625 -0.010130998679 -0.0039779949002 0.0054325000383 -0.012189996429 0.0085260057822
          -0.0031545001548 -0.01062199939 0.00085900415434 0.0010564998956 -0.011989993043 0.0092380056158
          -0.0030505002942 -0.0118809985 0.0051520061679 0.0062035000883 -0.0050479969941 -0.0022939958144
          0.0078254994005 -0.0054009980522 0.00045000456157 0.0070805000141 -0.0062609962188 0.0050820042379
          -3.4500040783e-005 -0.0050000003539 -0.0026439942885 0.0058404998854 -0.0064729950391 0.008792004548
          -0.0025605002884 -0.0053139976226 0.0019440061878 0.0013424999779 -0.006812994834 0.0093930056319
          -0.0025204999838 -0.0068949959241 0.0058440049179 0.0032524999697 -0.0067249960266 0.0025090060662
        </DataArray>
      </Points>
      <Verts>
        <DataArray type="Int64" Name="connectivity" format="ascii" RangeMin="1e+299" RangeMax="-1e+299">
        </DataArray>
        <DataArray type="Int64" Name="offsets" format="ascii" RangeMin="1e+299" RangeMax="-1e+299">
        </DataArray>
      </Verts>
      <Lines>
        <DataArray type="Int64" Name="connectivity" format="ascii" RangeMin="1e+299" RangeMax="-1e+299">
        </DataArray>
        <DataArray type="Int64" Name="offsets" format="ascii" RangeMin="1e+299" RangeMax="-1e+299">
        </DataArray>
      </Lines>
      <Strips>
        <DataArray type="Int64" Name="connectivity" format="ascii" RangeMin="1e+299" RangeMax="-1e+299">
        </DataArray>
        <DataArray type="Int64" Name="offsets" format="ascii" RangeMin="1e+299" RangeMax="-1e+299">
        </DataArray>
      </Strips>
      <Polys>
        <DataArray type="Int64" Name="connectivity" format="ascii" RangeMin="0" RangeMax="77">
          0 1 2 3 2 1
          4 0 5 2 5 0
          3 6 2 7 2 6
          2 7 5 8 5 7
          1 0 9 9 0 10
          0 4 10 11 10 4
          1 9 12 3 1 12
          12 13 3 13 6 3
          5 14 4 15 4 14
          16 14 8 5 8 14
          17 11 15 4 15 11
          18 7 19 19 7 6
          20 8 18 7 18 8
          6 13 19 21 16 20
          8 20 16 22 9 23
          10 23 9 23 10 24
          11 24 10 22 25 9
          12 9 25 24 11 26
          17 26 11 27 28 29
          28 12 29 25 29 12
          12 28 13 30 19 28
          13 28 19 31 15 32
          14 32 15 33 32 16
          14 16 32 34 17 31
          31 17 15 21 35 16
          33 16 35 26 17 36
          34 36 17 30 37 19
          19 37 18 20 18 38
          37 38 18 21 20 39
          38 39 20 35 21 40
          39 40 21 22 23 41
          42 41 23 23 24 42
          43 42 24 22 29 25
          22 41 29 44 43 26
          24 26 43 45 44 36
          26 36 44 28 27 30
          30 27 46 29 41 27
          46 27 41 47 37 46
          30 46 37 32 48 31
          31 48 49 50 48 33
          33 48 32 49 51 31
          51 34 31 50 33 52
          35 52 33 36 34 53
          34 51 53 52 35 54
          40 54 35 36 53 45
          55 45 53 56 38 47
          37 47 38 38 56 39
          57 39 56 40 39 58
          58 39 57 54 40 59
          58 59 40 41 42 46
          47 46 42 56 47 43
          42 43 47 57 56 44
          43 44 56 44 45 57
          58 57 45 55 59 45
          58 45 59 48 60 49
          61 49 60 60 48 62
          50 62 48 61 63 49
          63 51 49 64 62 52
          50 52 62 63 65 51
          53 51 65 64 52 66
          54 66 52 65 67 53
          55 53 67 66 54 68
          59 68 54 67 68 55
          59 55 68 69 70 60
          61 60 70 69 60 62
          70 71 61 61 71 63
          69 62 72 72 62 64
          65 63 73 71 73 63
          64 66 72 74 72 66
          73 75 65 65 75 67
          68 76 66 74 66 76
          68 67 76 75 76 67
          69 72 77 70 69 77
          71 70 77 73 71 77
          72 74 77 75 73 77
          74 76 77 76 75 77
        </DataArray>
        <DataArray type="Int64" Name="offsets" format="ascii" RangeMin="3" RangeMax="456">
          3 6 9 12 15 18
          21 24 27 30 33 36
          39 42 45 48 51 54
          57 60 63 66 69 72
          75 78 81 84 87 90
          93 96 99 102 105 108
          111 114 117 120 123 126
          129 132 135 138 141 144
          147 150 153 156 159 162
          165 168 171 174 177 180
          183 186 189 192 195 198
          201 204 207 210 213 216
          219 222 225 228 231 234
          237 240 243 246 249 252
          255 258 261 264 267 270
          273 276 279 282 285 288
          291 294 297 300 303 306
          309 312 315 318 321 324
          327 330 333 336 339 342
          345 348 351 354 357 360
          363 366 369 372 375 378
          381 384 387 390 393 396
          399 402 405 408 411 414
          417 420 423 426 429 432
          435 438 441 444 447 450
          453 456
        </DataArray>
      </Polys>
    </Piece>
  </PolyData>
</VTKFile>
