<VTKFile type="PolyData" version="0.1" byte_order="LittleEndian" header_type="UInt64">
  <PolyData>
    <Piece NumberOfPoints="42" NumberOfVerts="0" NumberOfLines="0" NumberOfStrips="0" NumberOfPolys="80">
      <PointData>
      </PointData>
      <CellData Scalars="STLSolidLabeling">
        <DataArray type="Float32" Name="STLSolidLabeling" format="ascii" RangeMin="0" RangeMax="0">
          0 0 0 0 0 0
          0 0 0 0 0 0
          0 0 0 0 0 0
          0 0 0 0 0 0
          0 0 0 0 0 0
          0 0 0 0 0 0
          0 0 0 0 0 0
          0 0 0 0 0 0
          0 0 0 0 0 0
          0 0 0 0 0 0
          0 0 0 0 0 0
          0 0 0 0 0 0
          0 0 0 0 0 0
          0 0
        </DataArray>
      </CellData>
      <Points>
        <DataArray type="Float32" Name="Points" NumberOfComponents="3" format="ascii" RangeMin="0.0033259735644" RangeMax="0.03569707596">
          -5.9000001784e-005 -0.035555996001 -0.0031699999236 0.0044320002198 -0.0031309961341 -0.0011429999722
          -0.0060399998911 -0.0038350014947 -0.0020039998926 0.003539999947 -0.0034559904598 -0.0074399998412
          -0.0017269999953 -0.0040489970706 -0.011988000013 -0.0064599998295 -0.0040159909986 -0.0071209999733
          0.0023219999857 -0.0086989933625 -0.0061960001476 0.0023469999433 -0.0086159938946 -0.00085599999875
          -0.00029200001154 -0.0030000000261 0.0014059999958 -0.00036800000817 -0.0079739922658 0.0010150000453
          -0.00072599999839 -0.0094889933243 -0.01080499962 -0.0055430000648 -0.0093089872971 -0.0065460000187
          -0.0051589999348 -0.0089499885216 -0.0022330000065 0.0032309999224 -0.03449999541 -0.00018499999715
          0.00084900000365 -0.033801995218 0.00070600002073 -0.00045500000124 -0.035210989416 -0.0030350000598
          0.0016629999736 -0.032225988805 -0.006682000123 -0.0029140000697 -0.03061898984 -0.0032329999376
          0.0040859999135 -0.030013987795 -0.00207399996 0.0012280000374 -0.013954990543 -0.0047610001639
          0.0018459999701 -0.014307000674 -0.00050099997316 -0.0002819999936 -0.013177999295 0.00077699997928
          -0.00077199999942 -0.015016996302 -0.008713000454 -0.0039110002108 -0.013844990171 -0.00095299998065
          -0.0045750001445 -0.014593997039 -0.0060970000923 0.0069140000269 -0.030220994726 0.0018469999777
          0.0031469999813 -0.033512987196 0.0029909999575 0.0016370000085 -0.03358399123 0.0026799999177
          -0.0014019999653 -0.029265994206 -0.00014800000645 0.0012720000232 -0.028433987871 0.002286999952
          -0.002487000078 -0.024177992716 -9.9999999748e-007 -0.0037380000576 -0.025255987421 -0.0040520001203
          0.00054300000193 -0.026491994038 -0.005855999887 0.0024939998984 -0.024700993672 -0.0029990000185
          0.0039110002108 -0.025739992037 0.0015920000151 0.0022730000783 -0.020416999236 0.00069600000279
          0.0013409999665 -0.019419992343 -0.0039260000922 -0.00042100000428 -0.018309989944 0.0010049999692
          -0.00056800001767 -0.020852992311 -0.0074599999934 -0.0030670000706 -0.018925989047 -5.8000001445e-005
          -0.0040830001235 -0.019897991791 -0.0049310000613 0.00047800000175 -0.023353988305 0.0016820000019
        </DataArray>
      </Points>
      <Verts>
        <DataArray type="Int64" Name="connectivity" format="ascii" RangeMin="1e+299" RangeMax="-1e+299">
        </DataArray>
        <DataArray type="Int64" Name="offsets" format="ascii" RangeMin="1e+299" RangeMax="-1e+299">
        </DataArray>
      </Verts>
      <Lines>
        <DataArray type="Int64" Name="connectivity" format="ascii" RangeMin="1e+299" RangeMax="-1e+299">
        </DataArray>
        <DataArray type="Int64" Name="offsets" format="ascii" RangeMin="1e+299" RangeMax="-1e+299">
        </DataArray>
      </Lines>
      <Strips>
        <DataArray type="Int64" Name="connectivity" format="ascii" RangeMin="1e+299" RangeMax="-1e+299">
        </DataArray>
        <DataArray type="Int64" Name="offsets" format="ascii" RangeMin="1e+299" RangeMax="-1e+299">
        </DataArray>
      </Strips>
      <Polys>
        <DataArray type="Int64" Name="connectivity" format="ascii" RangeMin="0" RangeMax="41">
          0 1 2 1 3 2
          3 4 2 5 2 4
          3 1 6 7 6 1
          1 8 7 9 7 8
          4 3 10 6 10 3
          10 11 4 5 4 11
          5 11 2 12 2 11
          8 2 9 12 9 2
          13 14 0 14 15 0
          16 0 17 15 17 0
          16 18 0 13 0 18
          6 7 19 19 7 20
          9 21 7 20 7 21
          10 6 22 19 22 6
          9 12 21 23 21 12
          10 22 11 24 11 22
          23 12 24 11 24 12
          18 25 13 26 13 25
          13 26 14 27 14 26
          28 14 29 27 29 14
          15 14 17 17 14 28
          30 31 28 17 28 31
          16 17 32 31 32 17
          16 32 18 33 18 32
          33 34 18 25 18 34
          35 36 20 19 20 36
          21 37 20 35 20 37
          19 36 22 38 22 36
          21 23 37 37 23 39
          38 40 22 24 22 40
          24 40 23 39 23 40
          25 29 26 29 27 26
          41 29 34 29 25 34
          28 29 30 41 30 29
          30 41 39 37 39 41
          39 40 30 31 30 40
          32 31 38 38 31 40
          36 33 38 32 38 33
          34 33 35 36 35 33
          34 35 41 37 41 35
        </DataArray>
        <DataArray type="Int64" Name="offsets" format="ascii" RangeMin="3" RangeMax="240">
          3 6 9 12 15 18
          21 24 27 30 33 36
          39 42 45 48 51 54
          57 60 63 66 69 72
          75 78 81 84 87 90
          93 96 99 102 105 108
          111 114 117 120 123 126
          129 132 135 138 141 144
          147 150 153 156 159 162
          165 168 171 174 177 180
          183 186 189 192 195 198
          201 204 207 210 213 216
          219 222 225 228 231 234
          237 240
        </DataArray>
      </Polys>
    </Piece>
  </PolyData>
</VTKFile>
