<VTKFile type="PolyData" version="0.1" byte_order="LittleEndian" header_type="UInt64">
  <PolyData>
    <Piece NumberOfPoints="78" NumberOfVerts="0" NumberOfLines="0" NumberOfStrips="0" NumberOfPolys="152">
      <PointData>
      </PointData>
      <CellData Scalars="STLSolidLabeling">
        <DataArray type="Float32" Name="STLSolidLabeling" format="ascii" RangeMin="0" RangeMax="0">
          0 0 0 0 0 0
          0 0 0 0 0 0
          0 0 0 0 0 0
          0 0 0 0 0 0
          0 0 0 0 0 0
          0 0 0 0 0 0
          0 0 0 0 0 0
          0 0 0 0 0 0
          0 0 0 0 0 0
          0 0 0 0 0 0
          0 0 0 0 0 0
          0 0 0 0 0 0
          0 0 0 0 0 0
          0 0 0 0 0 0
          0 0 0 0 0 0
          0 0 0 0 0 0
          0 0 0 0 0 0
          0 0 0 0 0 0
          0 0 0 0 0 0
          0 0 0 0 0 0
          0 0 0 0 0 0
          0 0 0 0 0 0
          0 0 0 0 0 0
          0 0 0 0 0 0
          0 0 0 0 0 0
          0 0
        </DataArray>
      </CellData>
      <Points>
        <DataArray type="Float32" Name="Points" NumberOfComponents="3" format="ascii" RangeMin="0.0083796024661" RangeMax="0.060918978997">
          0.0084960004315 -0.048739992082 0.0036580010783 0.010789000429 -0.055510990322 0.0023120006081
          0.0081169996411 -0.049427993596 0.00024400065013 0.011513000354 -0.055451996624 0.00084300123854
          0.0071499999613 -0.042014993727 0.0037590011489 0.0052379998378 -0.043456993997 0.00032700106385
          0.0065609999001 -0.052670992911 0.0005930007319 0.0049930000678 -0.046468995512 -0.00032099921373
          0.0041260002181 -0.04013299197 -0.00098499865271 0.0086669996381 -0.053993992507 0.0052180006169
          0.0061659999192 -0.047938995063 0.0051790005527 0.0056969998404 -0.041132993996 0.0054990006611
          0.0063809999265 -0.05979899317 0.0050900005735 0.0067280000076 -0.059450991452 0.0015080010053
          0.0050510000437 -0.036131992936 -6.0999111156e-005 0.0057000000961 -0.035133995116 0.003033000743
          0.0040810001083 -0.03366599232 -0.0014989993069 0.0049129999243 -0.03444699198 0.0057990006171
          0.0022309999913 -0.046549998224 0.0008400005172 0.0040440000594 -0.052877999842 0.00074400071753
          0.00090599991381 -0.040125995874 0.00056100048823 0.00031400009175 -0.03365599364 -0.00051999959396
          0.0094539998099 -0.05592700094 0.010754000396 0.005960999988 -0.050072997808 0.010584000498
          0.0035089999437 -0.043524995446 0.010008000769 0.0058780000545 -0.05988600105 0.0076460004784
          0.0038550000172 -0.036330997944 0.010315001011 0.0011100000702 -0.058566994965 0.0075490004383
          0.0047360002063 -0.059850998223 0.0026320011821 0.0050300001167 -0.059999994934 0.0092640006915
          0.0021420000121 -0.053942002356 0.0033430007752 0.0056039998308 -0.02808599174 0.0029850013088
          0.0056509999558 -0.028629995883 -0.00065699900733 0.0040080002509 -0.027202993631 -0.0021329990122
          0.0047349999659 -0.027731992304 0.0060770008713 0.00043400007416 -0.027118995786 -0.0015329991002
          0.0034769999329 -0.029245994985 0.010272000916 0.0010049999692 -0.047329992056 0.0037060005125
          -0.00073800049722 -0.04092399776 0.0037290004548 -0.0018690004945 -0.034403994679 0.0033950011712
          -0.0024450002238 -0.027755998075 0.0030080012511 0.004271000158 -0.053655989468 0.0099570006132
          0.0033209999092 -0.047289997339 0.0099210012704 0.00245800009 -0.040928997099 0.0098800007254
          0.0014300001785 -0.03452899307 0.0098440004513 0.00068899989128 -0.028118997812 0.0099420007318
          0.0016930000857 -0.052397988737 0.0072340006009 0.00077900011092 -0.046347998083 0.0077430009842
          0.0066430000588 -0.021578997374 -0.0011739993934 0.0066550001502 -0.021092996001 0.0021910013165
          0.0043660001829 -0.02083799243 -0.003203999484 0.0054999999702 -0.020944997668 0.0061860005371
          0.00059199985117 -0.02059199661 -0.0024559993763 0.0038989998866 -0.022035993636 0.01001700107
          -0.0030819997191 -0.021135993302 0.0026660009753 0.0016230000183 -0.021838992834 0.010758000426
          -0.00060399994254 -0.040313996375 0.0081110009924 -0.0016189999878 -0.034217998385 0.007875001058
          -0.0020869998261 -0.028059996665 0.0076430006884 -0.0025869999081 -0.02188899368 0.0074530006386
          0.0089800003916 -0.014899998903 -0.001161999302 0.0097979996353 -0.014885991812 0.0019320005085
          0.0057319998741 -0.014615997672 -0.0039999992587 0.0091869998723 -0.015620999038 0.0069550005719
          -0.00042700019549 -0.01426499337 -0.0039919991978 0.0069670001976 -0.015901997685 0.011386000551
          -0.0035129999742 -0.014525994658 0.0019350012299 0.0016259998083 -0.015608996153 0.012240001
          -0.0033849999309 -0.015761993825 0.0072540007532 0.0079070003703 -0.0079529955983 -0.0022939995397
          0.0098869996145 -0.0081919953227 0.0010740009602 0.0089779999107 -0.0089179947972 0.0067770006135
          0.0002950001799 -0.0079189985991 -0.0027239995543 0.0074649997987 -0.0089179947972 0.011312000453
          -0.0027879998088 -0.007981993258 0.0028880012687 0.0019749999046 -0.0092909932137 0.012068000622
          -0.0027390001342 -0.0096379965544 0.0077500008047 0.0043060001917 -0.0096619948745 0.0036740012001
        </DataArray>
      </Points>
      <Verts>
        <DataArray type="Int64" Name="connectivity" format="ascii" RangeMin="1e+299" RangeMax="-1e+299">
        </DataArray>
        <DataArray type="Int64" Name="offsets" format="ascii" RangeMin="1e+299" RangeMax="-1e+299">
        </DataArray>
      </Verts>
      <Lines>
        <DataArray type="Int64" Name="connectivity" format="ascii" RangeMin="1e+299" RangeMax="-1e+299">
        </DataArray>
        <DataArray type="Int64" Name="offsets" format="ascii" RangeMin="1e+299" RangeMax="-1e+299">
        </DataArray>
      </Lines>
      <Strips>
        <DataArray type="Int64" Name="connectivity" format="ascii" RangeMin="1e+299" RangeMax="-1e+299">
        </DataArray>
        <DataArray type="Int64" Name="offsets" format="ascii" RangeMin="1e+299" RangeMax="-1e+299">
        </DataArray>
      </Strips>
      <Polys>
        <DataArray type="Int64" Name="connectivity" format="ascii" RangeMin="0" RangeMax="77">
          0 1 2 2 1 3
          4 0 5 2 5 0
          3 6 2 2 6 7
          2 7 5 8 5 7
          1 0 9 10 9 0
          0 4 10 11 10 4
          1 9 12 3 1 12
          12 13 3 13 6 3
          5 14 4 15 4 14
          16 14 8 5 8 14
          17 11 15 4 15 11
          18 7 19 6 19 7
          20 8 18 8 7 18
          6 13 19 21 16 20
          8 20 16 22 9 23
          10 23 9 23 10 24
          11 24 10 22 25 9
          12 9 25 24 11 26
          17 26 11 27 28 29
          28 12 29 29 12 25
          12 28 13 30 19 28
          28 19 13 31 15 32
          15 14 32 33 32 16
          14 16 32 34 17 31
          15 31 17 21 35 16
          33 16 35 26 17 36
          34 36 17 30 37 19
          18 19 37 20 18 38
          37 38 18 21 20 39
          39 20 38 35 21 40
          39 40 21 22 23 41
          42 41 23 23 24 42
          43 42 24 22 29 25
          22 41 29 44 43 26
          24 26 43 45 44 36
          26 36 44 28 27 30
          46 30 27 29 41 27
          46 27 41 47 37 46
          30 46 37 32 48 31
          49 31 48 50 48 33
          32 33 48 49 51 31
          34 31 51 50 33 52
          35 52 33 36 34 53
          51 53 34 52 35 54
          54 35 40 36 53 45
          45 53 55 56 38 47
          38 37 47 38 56 39
          39 56 57 40 39 58
          57 58 39 54 40 59
          58 59 40 41 42 46
          47 46 42 56 47 43
          42 43 47 57 56 44
          56 43 44 44 45 57
          58 57 45 55 59 45
          58 45 59 48 60 49
          60 61 49 60 48 62
          62 48 50 61 63 49
          51 49 63 64 62 52
          50 52 62 63 65 51
          53 51 65 64 52 66
          66 52 54 65 67 53
          55 53 67 66 54 68
          59 68 54 67 68 55
          55 68 59 69 70 60
          61 60 70 69 60 62
          70 71 61 63 61 71
          69 62 72 64 72 62
          65 63 73 71 73 63
          64 66 72 74 72 66
          73 75 65 67 65 75
          68 76 66 74 66 76
          68 67 76 76 67 75
          69 72 77 70 69 77
          71 70 77 73 71 77
          72 74 77 75 73 77
          74 76 77 76 75 77
        </DataArray>
        <DataArray type="Int64" Name="offsets" format="ascii" RangeMin="3" RangeMax="456">
          3 6 9 12 15 18
          21 24 27 30 33 36
          39 42 45 48 51 54
          57 60 63 66 69 72
          75 78 81 84 87 90
          93 96 99 102 105 108
          111 114 117 120 123 126
          129 132 135 138 141 144
          147 150 153 156 159 162
          165 168 171 174 177 180
          183 186 189 192 195 198
          201 204 207 210 213 216
          219 222 225 228 231 234
          237 240 243 246 249 252
          255 258 261 264 267 270
          273 276 279 282 285 288
          291 294 297 300 303 306
          309 312 315 318 321 324
          327 330 333 336 339 342
          345 348 351 354 357 360
          363 366 369 372 375 378
          381 384 387 390 393 396
          399 402 405 408 411 414
          417 420 423 426 429 432
          435 438 441 444 447 450
          453 456
        </DataArray>
      </Polys>
    </Piece>
  </PolyData>
</VTKFile>
