<VTKFile type="PolyData" version="0.1" byte_order="LittleEndian" header_type="UInt64">
  <PolyData>
    <Piece NumberOfPoints="78" NumberOfVerts="0" NumberOfLines="0" NumberOfStrips="0" NumberOfPolys="152">
      <PointData>
      </PointData>
      <CellData Scalars="STLSolidLabeling">
        <DataArray type="Float32" Name="STLSolidLabeling" format="ascii" RangeMin="0" RangeMax="0">
          0 0 0 0 0 0
          0 0 0 0 0 0
          0 0 0 0 0 0
          0 0 0 0 0 0
          0 0 0 0 0 0
          0 0 0 0 0 0
          0 0 0 0 0 0
          0 0 0 0 0 0
          0 0 0 0 0 0
          0 0 0 0 0 0
          0 0 0 0 0 0
          0 0 0 0 0 0
          0 0 0 0 0 0
          0 0 0 0 0 0
          0 0 0 0 0 0
          0 0 0 0 0 0
          0 0 0 0 0 0
          0 0 0 0 0 0
          0 0 0 0 0 0
          0 0 0 0 0 0
          0 0 0 0 0 0
          0 0 0 0 0 0
          0 0 0 0 0 0
          0 0 0 0 0 0
          0 0 0 0 0 0
          0 0
        </DataArray>
      </CellData>
      <Points>
        <DataArray type="Float32" Name="Points" NumberOfComponents="3" format="ascii" RangeMin="0.0056669023172" RangeMax="0.057888363354">
          0.0074959998019 -0.045739997178 0.0036580010783 0.0097890002653 -0.052510995418 0.0023120006081
          0.0071169999428 -0.046427998692 0.00024400065013 0.01051300019 -0.052452001721 0.00084300123854
          0.0061499997973 -0.039014998823 0.0037590011489 0.0042380001396 -0.040456999093 0.00032700106385
          0.0055610002019 -0.049670998007 0.0005930007319 0.0039929999039 -0.043469000608 -0.00032099921373
          0.0031260000542 -0.037132997066 -0.00098499865271 0.0076669999398 -0.050993997604 0.0052180006169
          0.0051660002209 -0.04493900016 0.0051790005527 0.0046970001422 -0.038132999092 0.0054990006611
          0.0053809997626 -0.056798998266 0.0050900005735 0.0057279998437 -0.056450996548 0.0015080010053
          0.0040509998798 -0.033131998032 -6.0999111156e-005 0.0046999999322 -0.032134000212 0.003033000743
          0.0030809999444 -0.030665995553 -0.0014989993069 0.0039129997604 -0.031446997076 0.0057990006171
          0.0012310000602 -0.04355000332 0.0008400005172 0.0030440001283 -0.049878004938 0.00074400071753
          -9.4000046374e-005 -0.037126000971 0.00056100048823 -0.00068599986844 -0.030655996874 -0.00051999959396
          0.008453999646 -0.052927006036 0.010754000396 0.0049609998241 -0.047073002905 0.010584000498
          0.0025090000127 -0.040525000542 0.010008000769 0.0048779998906 -0.056886006147 0.0076460004784
          0.0028550000861 -0.03333100304 0.010315001011 0.00011000011 -0.055567000061 0.0075490004383
          0.0037360000424 -0.056851003319 0.0026320011821 0.0040299999528 -0.05700000003 0.0092640006915
          0.001142000081 -0.050942007452 0.0033430007752 0.0046040001325 -0.025085994974 0.0029850013088
          0.0046509997919 -0.025629999116 -0.00065699900733 0.003008000087 -0.024202996865 -0.0021329990122
          0.0037350000348 -0.024731995538 0.0060770008713 -0.00056599988602 -0.024118999019 -0.0015329991002
          0.0024770000018 -0.026245998219 0.010272000916 5.0000121519e-006 -0.044329997152 0.0037060005125
          -0.0017380004283 -0.037924002856 0.0037290004548 -0.0028690004256 -0.031403999776 0.0033950011712
          -0.0034450001549 -0.024756001309 0.0030080012511 0.0032709999941 -0.050655994564 0.0099570006132
          0.0023209999781 -0.044290002435 0.0099210012704 0.0014580001589 -0.037929002196 0.0098800007254
          0.00043000021833 -0.031528998166 0.0098440004513 -0.0003110000689 -0.025119001046 0.0099420007318
          0.00069300015457 -0.049397993833 0.0072340006009 -0.00022099984926 -0.043348003179 0.0077430009842
          0.0056429998949 -0.018579000607 -0.0011739993934 0.0056549999863 -0.018092999235 0.0021910013165
          0.003366000019 -0.017837995663 -0.003203999484 0.0044999998063 -0.017945000902 0.0061860005371
          -0.00040800010902 -0.017591999844 -0.0024559993763 0.0028989999555 -0.019035996869 0.01001700107
          -0.0040819998831 -0.018135996535 0.0026660009753 0.00062300008722 -0.018838996068 0.010758000426
          -0.0016039998736 -0.037314001471 0.0081110009924 -0.0026189999189 -0.031218001619 0.007875001058
          -0.0030869997572 -0.025059999898 0.0076430006884 -0.0035869998392 -0.018888996914 0.0074530006386
          0.0079800002277 -0.011900002137 -0.001161999302 0.0087979994714 -0.011885995045 0.0019320005085
          0.0047320001759 -0.011616000906 -0.0039999992587 0.0081869997084 -0.012621002272 0.0069550005719
          -0.0014270001557 -0.011264996603 -0.0039919991978 0.0059670000337 -0.012902000919 0.011386000551
          -0.0045130001381 -0.011525997892 0.0019350012299 0.00062599987723 -0.012608999386 0.012240001
          -0.0043850000948 -0.012761997059 0.0072540007532 0.0069070002064 -0.0049529992975 -0.0022939995397
          0.0088869994506 -0.0051919990219 0.0010740009602 0.0079779997468 -0.0059179984964 0.0067770006135
          -0.00070499978028 -0.0049190022983 -0.0027239995543 0.0064650001004 -0.0059179984964 0.011312000453
          -0.0037879997399 -0.0049819969572 0.0028880012687 0.00097499997355 -0.0062909969129 0.012068000622
          -0.0037390000653 -0.0066380002536 0.0077500008047 0.0033060000278 -0.0066619985737 0.0036740012001
        </DataArray>
      </Points>
      <Verts>
        <DataArray type="Int64" Name="connectivity" format="ascii" RangeMin="1e+299" RangeMax="-1e+299">
        </DataArray>
        <DataArray type="Int64" Name="offsets" format="ascii" RangeMin="1e+299" RangeMax="-1e+299">
        </DataArray>
      </Verts>
      <Lines>
        <DataArray type="Int64" Name="connectivity" format="ascii" RangeMin="1e+299" RangeMax="-1e+299">
        </DataArray>
        <DataArray type="Int64" Name="offsets" format="ascii" RangeMin="1e+299" RangeMax="-1e+299">
        </DataArray>
      </Lines>
      <Strips>
        <DataArray type="Int64" Name="connectivity" format="ascii" RangeMin="1e+299" RangeMax="-1e+299">
        </DataArray>
        <DataArray type="Int64" Name="offsets" format="ascii" RangeMin="1e+299" RangeMax="-1e+299">
        </DataArray>
      </Strips>
      <Polys>
        <DataArray type="Int64" Name="connectivity" format="ascii" RangeMin="0" RangeMax="77">
          0 1 2 2 1 3
          4 0 5 2 5 0
          3 6 2 2 6 7
          2 7 5 8 5 7
          1 0 9 10 9 0
          0 4 10 11 10 4
          1 9 12 3 1 12
          12 13 3 13 6 3
          5 14 4 15 4 14
          16 14 8 5 8 14
          17 11 15 4 15 11
          18 7 19 6 19 7
          20 8 18 8 7 18
          6 13 19 21 16 20
          8 20 16 22 9 23
          10 23 9 23 10 24
          11 24 10 22 25 9
          12 9 25 24 11 26
          17 26 11 27 28 29
          28 12 29 29 12 25
          12 28 13 30 19 28
          28 19 13 31 15 32
          15 14 32 33 32 16
          14 16 32 34 17 31
          15 31 17 21 35 16
          33 16 35 26 17 36
          34 36 17 30 37 19
          18 19 37 20 18 38
          37 38 18 21 20 39
          39 20 38 35 21 40
          39 40 21 22 23 41
          42 41 23 23 24 42
          43 42 24 22 29 25
          22 41 29 44 43 26
          24 26 43 45 44 36
          26 36 44 28 27 30
          46 30 27 29 41 27
          46 27 41 47 37 46
          30 46 37 32 48 31
          49 31 48 50 48 33
          32 33 48 49 51 31
          34 31 51 50 33 52
          35 52 33 36 34 53
          51 53 34 52 35 54
          54 35 40 36 53 45
          45 53 55 56 38 47
          38 37 47 38 56 39
          39 56 57 40 39 58
          57 58 39 54 40 59
          58 59 40 41 42 46
          47 46 42 56 47 43
          42 43 47 57 56 44
          56 43 44 44 45 57
          58 57 45 55 59 45
          58 45 59 48 60 49
          60 61 49 60 48 62
          62 48 50 61 63 49
          51 49 63 64 62 52
          50 52 62 63 65 51
          53 51 65 64 52 66
          66 52 54 65 67 53
          55 53 67 66 54 68
          59 68 54 67 68 55
          55 68 59 69 70 60
          61 60 70 69 60 62
          70 71 61 63 61 71
          69 62 72 64 72 62
          65 63 73 71 73 63
          64 66 72 74 72 66
          73 75 65 67 65 75
          68 76 66 74 66 76
          68 67 76 76 67 75
          69 72 77 70 69 77
          71 70 77 73 71 77
          72 74 77 75 73 77
          74 76 77 76 75 77
        </DataArray>
        <DataArray type="Int64" Name="offsets" format="ascii" RangeMin="3" RangeMax="456">
          3 6 9 12 15 18
          21 24 27 30 33 36
          39 42 45 48 51 54
          57 60 63 66 69 72
          75 78 81 84 87 90
          93 96 99 102 105 108
          111 114 117 120 123 126
          129 132 135 138 141 144
          147 150 153 156 159 162
          165 168 171 174 177 180
          183 186 189 192 195 198
          201 204 207 210 213 216
          219 222 225 228 231 234
          237 240 243 246 249 252
          255 258 261 264 267 270
          273 276 279 282 285 288
          291 294 297 300 303 306
          309 312 315 318 321 324
          327 330 333 336 339 342
          345 348 351 354 357 360
          363 366 369 372 375 378
          381 384 387 390 393 396
          399 402 405 408 411 414
          417 420 423 426 429 432
          435 438 441 444 447 450
          453 456
        </DataArray>
      </Polys>
    </Piece>
  </PolyData>
</VTKFile>
