<VTKFile type="PolyData" version="0.1" byte_order="LittleEndian" header_type="UInt64">
  <PolyData>
    <Piece NumberOfPoints="78" NumberOfVerts="0" NumberOfLines="0" NumberOfStrips="0" NumberOfPolys="152">
      <PointData>
      </PointData>
      <CellData Scalars="STLSolidLabeling">
        <DataArray type="Float32" Name="STLSolidLabeling" format="ascii" RangeMin="0" RangeMax="0">
          0 0 0 0 0 0
          0 0 0 0 0 0
          0 0 0 0 0 0
          0 0 0 0 0 0
          0 0 0 0 0 0
          0 0 0 0 0 0
          0 0 0 0 0 0
          0 0 0 0 0 0
          0 0 0 0 0 0
          0 0 0 0 0 0
          0 0 0 0 0 0
          0 0 0 0 0 0
          0 0 0 0 0 0
          0 0 0 0 0 0
          0 0 0 0 0 0
          0 0 0 0 0 0
          0 0 0 0 0 0
          0 0 0 0 0 0
          0 0 0 0 0 0
          0 0 0 0 0 0
          0 0 0 0 0 0
          0 0 0 0 0 0
          0 0 0 0 0 0
          0 0 0 0 0 0
          0 0 0 0 0 0
          0 0
        </DataArray>
      </CellData>
      <Points>
        <DataArray type="Float32" Name="Points" NumberOfComponents="3" format="ascii" RangeMin="0.006524189796" RangeMax="0.061021277469">
          0.005944499746 -0.048693992198 0.0060160006396 0.0076994998381 -0.055974982679 0.0051420009695
          0.0054964995943 -0.049610987306 0.0026570004411 0.0084184994921 -0.056067995727 0.0036720004864
          0.0051244995557 -0.041616991162 0.0056520006619 0.0030884998851 -0.043200992048 0.0023270002566
          0.0036944998428 -0.052831985056 0.0032300003804 0.0026084999554 -0.04634898901 0.0018890000647
          0.0022314996459 -0.039762988687 0.00078900012886 0.0057155000977 -0.054047994316 0.0079359998927
          0.0036904998124 -0.047587990761 0.0074780001305 0.0037524998188 -0.040475986898 0.0073270010762
          0.0029844995588 -0.059901989996 0.0082090003416 0.0033404999413 -0.059809990227 0.004610999953
          0.0034694997594 -0.035620987415 0.0014340005582 0.0042094998062 -0.034425988793 0.0044520008378
          0.0026854998432 -0.033089987934 -0.00017099973047 0.0034914999269 -0.03346799314 0.0071640009992
          -0.00014649983495 -0.046147987247 0.0030530006625 0.0011705001816 -0.052847988904 0.0033940006979
          -0.00097149983048 -0.039409987628 0.0023310002871 -0.0010655000806 -0.032731987536 0.00080500025069
          0.006378499791 -0.055734984577 0.01359300036 0.0033485000022 -0.049417987466 0.01301799994
          0.0014084996656 -0.042486988008 0.011991000734 0.0024894997478 -0.059781990945 0.010766000487
          0.0023124995641 -0.035035990179 0.011799999513 -0.0021635005251 -0.058065988123 0.010576999746
          0.0013274997473 -0.059999994934 0.0057610007934 0.0016434993595 -0.059727989137 0.012387999333
          -0.00079650059342 -0.053633995354 0.0060620005243 0.0046604997478 -0.027115995064 0.0039170007221
          0.0046454998665 -0.027930991724 0.00032100029057 0.0031114998274 -0.026428991929 -0.00124999939
          0.0038364999928 -0.026474991813 0.0069780009799 -0.00044350046664 -0.026033991948 -0.00065799948061
          0.0024854997173 -0.027666995302 0.011266999878 -0.0014155004174 -0.046670988202 0.0059670000337
          -0.0026575000957 -0.039899989963 0.0055469996296 -0.0032804999501 -0.033079989254 0.0047630011104
          -0.0033415006474 -0.026172989979 0.0039170007221 0.0013824999332 -0.053047992289 0.012640000321
          0.00092849973589 -0.046381987631 0.012164999731 0.00056149996817 -0.039726987481 0.011683999561
          3.1500130717e-005 -0.033018991351 0.011206000112 -0.00020849984139 -0.026312993839 0.010860000737
          -0.0011045001447 -0.051736988127 0.0098370006308 -0.0015435004607 -0.045362986624 0.0099259996787
          0.0061794999056 -0.020730989054 -0.0006829999038 0.0062464997172 -0.01999999024 0.0026410003193
          0.0039554997347 -0.019930990413 -0.0027589998208 0.0051264995709 -0.019490988925 0.0066169998609
          0.00021549966186 -0.019342990592 -0.0020299996249 0.0034644999541 -0.020241992548 0.01051499974
          -0.0034645004198 -0.019285993651 0.0031180004589 0.0012144995853 -0.019817994907 0.011240999214
          -0.002453500405 -0.03897999227 0.0098760006949 -0.0029934998602 -0.032602988183 0.0092189991847
          -0.0029835002497 -0.026199990883 0.0085619995371 -0.0030045006424 -0.019778991118 0.0079460004345
          0.0090274997056 -0.013982989825 -0.0011319998885 0.009860499762 -0.013818987645 0.0019540009089
          0.0057974997908 -0.013636992313 -0.0039829993621 0.0092195002362 -0.014194988646 0.0070160008036
          -0.00031749997288 -0.012812987901 -0.0039999997243 0.0070074996911 -0.014020987786 0.011456000619
          -0.0033855000511 -0.012452990748 0.0019320001593 0.0017084996216 -0.013260991313 0.012287999503
          -0.0033264998347 -0.013382987119 0.0073240003549 0.0084915002808 -0.0067779878154 -0.0027419994585
          0.010464499705 -0.0069459909573 0.00063500035321 0.0095304995775 -0.0072439918295 0.0063750012778
          0.00090049952269 -0.0062039876357 -0.003173999954 0.0080444999039 -0.0068239877 0.010899000801
          -0.0021505001932 -0.005659990944 0.0024300008081 0.0025444999337 -0.0067489901558 0.011680000462
          -0.0022055003792 -0.0070499936119 0.0073950006627 0.0047984998673 -0.0078759873286 0.003331000451
        </DataArray>
      </Points>
      <Verts>
        <DataArray type="Int64" Name="connectivity" format="ascii" RangeMin="1e+299" RangeMax="-1e+299">
        </DataArray>
        <DataArray type="Int64" Name="offsets" format="ascii" RangeMin="1e+299" RangeMax="-1e+299">
        </DataArray>
      </Verts>
      <Lines>
        <DataArray type="Int64" Name="connectivity" format="ascii" RangeMin="1e+299" RangeMax="-1e+299">
        </DataArray>
        <DataArray type="Int64" Name="offsets" format="ascii" RangeMin="1e+299" RangeMax="-1e+299">
        </DataArray>
      </Lines>
      <Strips>
        <DataArray type="Int64" Name="connectivity" format="ascii" RangeMin="1e+299" RangeMax="-1e+299">
        </DataArray>
        <DataArray type="Int64" Name="offsets" format="ascii" RangeMin="1e+299" RangeMax="-1e+299">
        </DataArray>
      </Strips>
      <Polys>
        <DataArray type="Int64" Name="connectivity" format="ascii" RangeMin="0" RangeMax="77">
          0 1 2 3 2 1
          4 0 5 2 5 0
          3 6 2 7 2 6
          2 7 5 7 8 5
          1 0 9 10 9 0
          0 4 10 11 10 4
          1 9 12 3 1 12
          12 13 3 13 6 3
          5 14 4 15 4 14
          16 14 8 8 14 5
          17 11 15 4 15 11
          18 7 19 6 19 7
          20 8 18 7 18 8
          6 13 19 21 16 20
          8 20 16 22 9 23
          10 23 9 23 10 24
          11 24 10 22 25 9
          12 9 25 24 11 26
          17 26 11 27 28 29
          28 12 29 29 12 25
          12 28 13 19 13 30
          28 30 13 31 15 32
          15 14 32 33 32 16
          14 16 32 34 17 31
          31 17 15 21 35 16
          33 16 35 26 17 36
          34 36 17 30 37 19
          37 18 19 20 18 38
          37 38 18 21 20 39
          39 20 38 35 21 40
          39 40 21 22 23 41
          42 41 23 23 24 42
          42 24 43 22 29 25
          22 41 29 44 43 26
          26 43 24 45 44 36
          44 26 36 28 27 30
          30 27 46 29 41 27
          27 41 46 47 37 46
          46 37 30 32 48 31
          49 31 48 50 48 33
          32 33 48 49 51 31
          34 31 51 50 33 52
          35 52 33 36 34 53
          51 53 34 52 35 54
          40 54 35 36 53 45
          55 45 53 56 38 47
          37 47 38 38 56 39
          57 39 56 40 39 58
          57 58 39 54 40 59
          58 59 40 41 42 46
          47 46 42 56 47 43
          42 43 47 57 56 44
          43 44 56 44 45 57
          45 58 57 55 59 45
          58 45 59 48 60 49
          61 49 60 60 48 62
          50 62 48 61 63 49
          51 49 63 64 62 52
          50 52 62 63 65 51
          53 51 65 64 52 66
          66 52 54 65 67 53
          55 53 67 66 54 68
          59 68 54 67 68 55
          59 55 68 69 70 60
          61 60 70 69 60 62
          70 71 61 63 61 71
          69 62 72 64 72 62
          65 63 73 71 73 63
          64 66 72 74 72 66
          73 75 65 67 65 75
          68 76 66 76 74 66
          68 67 76 75 76 67
          69 72 77 70 69 77
          71 70 77 73 71 77
          72 74 77 75 73 77
          74 76 77 76 75 77
        </DataArray>
        <DataArray type="Int64" Name="offsets" format="ascii" RangeMin="3" RangeMax="456">
          3 6 9 12 15 18
          21 24 27 30 33 36
          39 42 45 48 51 54
          57 60 63 66 69 72
          75 78 81 84 87 90
          93 96 99 102 105 108
          111 114 117 120 123 126
          129 132 135 138 141 144
          147 150 153 156 159 162
          165 168 171 174 177 180
          183 186 189 192 195 198
          201 204 207 210 213 216
          219 222 225 228 231 234
          237 240 243 246 249 252
          255 258 261 264 267 270
          273 276 279 282 285 288
          291 294 297 300 303 306
          309 312 315 318 321 324
          327 330 333 336 339 342
          345 348 351 354 357 360
          363 366 369 372 375 378
          381 384 387 390 393 396
          399 402 405 408 411 414
          417 420 423 426 429 432
          435 438 441 444 447 450
          453 456
        </DataArray>
      </Polys>
    </Piece>
  </PolyData>
</VTKFile>
