<VTKFile type="PolyData" version="0.1" byte_order="LittleEndian" header_type="UInt64">
  <PolyData>
    <Piece NumberOfPoints="78" NumberOfVerts="0" NumberOfLines="0" NumberOfStrips="0" NumberOfPolys="152">
      <PointData>
      </PointData>
      <CellData Scalars="STLSolidLabeling">
        <DataArray type="Float32" Name="STLSolidLabeling" format="ascii" RangeMin="0" RangeMax="0">
          0 0 0 0 0 0
          0 0 0 0 0 0
          0 0 0 0 0 0
          0 0 0 0 0 0
          0 0 0 0 0 0
          0 0 0 0 0 0
          0 0 0 0 0 0
          0 0 0 0 0 0
          0 0 0 0 0 0
          0 0 0 0 0 0
          0 0 0 0 0 0
          0 0 0 0 0 0
          0 0 0 0 0 0
          0 0 0 0 0 0
          0 0 0 0 0 0
          0 0 0 0 0 0
          0 0 0 0 0 0
          0 0 0 0 0 0
          0 0 0 0 0 0
          0 0 0 0 0 0
          0 0 0 0 0 0
          0 0 0 0 0 0
          0 0 0 0 0 0
          0 0 0 0 0 0
          0 0 0 0 0 0
          0 0
        </DataArray>
      </CellData>
      <Points>
        <DataArray type="Float32" Name="Points" NumberOfComponents="3" format="ascii" RangeMin="0.027980853038" RangeMax="0.059621898207">
          0.0049470001832 -0.036692000926 -0.036283999681 0.0068259998225 -0.042168006301 -0.037700999528
          0.004637000151 -0.03709500283 -0.039110001177 0.0074189999141 -0.042051002383 -0.038901001215
          0.0038449999411 -0.031195001677 -0.03588699922 0.0022780001163 -0.032214000821 -0.038763001561
          0.0033619999886 -0.039764001966 -0.038975998759 0.0020779999904 -0.034648001194 -0.039432998747
          0.001367000048 -0.029434004799 -0.039680000395 0.0050869998522 -0.041063003242 -0.035254001617
          0.0030380000826 -0.036108002067 -0.035002999008 0.0026539999526 -0.030555004254 -0.034423001111
          0.0032140000258 -0.045804999769 -0.035629998893 0.0034980000928 -0.045353002846 -0.038543999195
          0.0021259998903 -0.026204006746 -0.038738001138 0.0026579999831 -0.025533007458 -0.036159001291
          0.0013310000068 -0.02411900647 -0.039799001068 0.0020119999535 -0.025099003688 -0.033865001053
          -0.00018499999715 -0.034768000245 -0.038488000631 0.0013000000035 -0.03993999958 -0.038862001151
          -0.0012710000155 -0.029500002041 -0.038414999843 -0.0017559999833 -0.024157004431 -0.038998000324
          0.0057319998741 -0.042903006077 -0.030814999714 0.0028699999675 -0.038106001914 -0.03068099916
          0.00086199998623 -0.032722003758 -0.030845999718 0.0028019999154 -0.045996002853 -0.03354300186
          0.0011449999874 -0.026852006093 -0.030259000137 -0.0011050000321 -0.044912002981 -0.033560998738
          0.001866000006 -0.045733004808 -0.037643000484 0.0021069999784 -0.046165004373 -0.0322239995
          -0.00025899999309 -0.040931999683 -0.036784999073 0.0025800000876 -0.019764008 -0.035868998617
          0.0026179999113 -0.02003900148 -0.038874998689 0.0012720000232 -0.018803002313 -0.04001500085
          0.0018670000136 -0.019619004801 -0.033323999494 -0.0016570000444 -0.018762001768 -0.039521001279
          0.00083600002108 -0.021053003147 -0.029962999746 -0.0011899999809 -0.035539999604 -0.036178998649
          -0.0026179999113 -0.030301006511 -0.035861000419 -0.0035439999774 -0.024951005355 -0.035829000175
          -0.0040159998462 -0.019496003166 -0.035835999995 0.0014850000152 -0.041007004678 -0.03136099875
          0.00070799997775 -0.03579800576 -0.031092999503 9.9999999748e-007 -0.030593002215 -0.030829999596
          -0.00084200000856 -0.025356004015 -0.030559999868 -0.0014479999663 -0.02011600323 -0.030179999769
          -0.00062700000126 -0.039851002395 -0.033530000597 -0.0013749999925 -0.034926004708 -0.032830998302
          0.0034310000483 -0.014247001149 -0.038968000561 0.0034409998916 -0.014007003047 -0.036191999912
          0.0015650000423 -0.013546005823 -0.040594000369 0.002494999906 -0.014072001912 -0.032917000353
          -0.0015269999858 -0.013379001059 -0.039971001446 0.001183000044 -0.015143000521 -0.029834000394
          -0.0045369998552 -0.01406300161 -0.035806000233 -0.0006820000126 -0.015017003752 -0.029218999669
          -0.0025090000127 -0.030006008223 -0.032248001546 -0.0033390000463 -0.025009008124 -0.032156001776
          -0.0037219999358 -0.019960002974 -0.032058000565 -0.0041310000233 -0.014903002419 -0.03192500025
          0.0053460001945 -0.0087850028649 -0.038646001369 0.0060169999488 -0.0089170048013 -0.036113999784
          0.0026849999558 -0.0084190005437 -0.040954001248 0.005516000092 -0.0097530046478 -0.032039999962
          -0.0023610000499 -0.0081310058013 -0.040931999683 0.0036969999783 -0.010190003552 -0.028427999467
          -0.004889999982 -0.0086220065132 -0.036095000803 -0.00067899998976 -0.009990000166 -0.027715999633
          -0.0047860001214 -0.0098810056224 -0.031801998615 0.0044680000283 -0.0030480041169 -0.03924800083
          0.0060899998061 -0.003401005175 -0.036504000425 0.0053449999541 -0.0042610033415 -0.031872000545
          -0.0017699999735 -0.0030000074767 -0.039597999305 0.0041049998254 -0.0044730021618 -0.028162000701
          -0.0042960001156 -0.0033140047453 -0.035009998828 -0.0003929999948 -0.0048130019568 -0.027560999617
          -0.004255999811 -0.0048950030468 -0.031109999865 0.0015170000261 -0.0047250031494 -0.03444499895
        </DataArray>
      </Points>
      <Verts>
        <DataArray type="Int64" Name="connectivity" format="ascii" RangeMin="1e+299" RangeMax="-1e+299">
        </DataArray>
        <DataArray type="Int64" Name="offsets" format="ascii" RangeMin="1e+299" RangeMax="-1e+299">
        </DataArray>
      </Verts>
      <Lines>
        <DataArray type="Int64" Name="connectivity" format="ascii" RangeMin="1e+299" RangeMax="-1e+299">
        </DataArray>
        <DataArray type="Int64" Name="offsets" format="ascii" RangeMin="1e+299" RangeMax="-1e+299">
        </DataArray>
      </Lines>
      <Strips>
        <DataArray type="Int64" Name="connectivity" format="ascii" RangeMin="1e+299" RangeMax="-1e+299">
        </DataArray>
        <DataArray type="Int64" Name="offsets" format="ascii" RangeMin="1e+299" RangeMax="-1e+299">
        </DataArray>
      </Strips>
      <Polys>
        <DataArray type="Int64" Name="connectivity" format="ascii" RangeMin="0" RangeMax="77">
          0 1 2 3 2 1
          4 0 5 2 5 0
          3 6 2 7 2 6
          2 7 5 8 5 7
          1 0 9 9 0 10
          0 4 10 11 10 4
          1 9 12 3 1 12
          12 13 3 13 6 3
          5 14 4 15 4 14
          16 14 8 5 8 14
          17 11 15 4 15 11
          18 7 19 19 7 6
          20 8 18 7 18 8
          6 13 19 21 16 20
          8 20 16 22 9 23
          10 23 9 23 10 24
          11 24 10 22 25 9
          12 9 25 24 11 26
          17 26 11 27 28 29
          28 12 29 25 29 12
          12 28 13 30 19 28
          13 28 19 31 15 32
          14 32 15 33 32 16
          14 16 32 34 17 31
          31 17 15 21 35 16
          33 16 35 26 17 36
          34 36 17 30 37 19
          19 37 18 20 18 38
          37 38 18 21 20 39
          38 39 20 35 21 40
          39 40 21 22 23 41
          42 41 23 23 24 42
          43 42 24 22 29 25
          22 41 29 44 43 26
          24 26 43 45 44 36
          26 36 44 28 27 30
          30 27 46 29 41 27
          46 27 41 47 37 46
          30 46 37 32 48 31
          31 48 49 50 48 33
          33 48 32 49 51 31
          51 34 31 50 33 52
          35 52 33 36 34 53
          34 51 53 52 35 54
          40 54 35 36 53 45
          55 45 53 56 38 47
          37 47 38 38 56 39
          57 39 56 40 39 58
          58 39 57 54 40 59
          58 59 40 41 42 46
          47 46 42 56 47 43
          42 43 47 57 56 44
          43 44 56 44 45 57
          58 57 45 55 59 45
          58 45 59 48 60 49
          61 49 60 60 48 62
          50 62 48 61 63 49
          63 51 49 64 62 52
          50 52 62 63 65 51
          53 51 65 64 52 66
          54 66 52 65 67 53
          55 53 67 66 54 68
          59 68 54 67 68 55
          59 55 68 69 70 60
          61 60 70 69 60 62
          70 71 61 61 71 63
          69 62 72 72 62 64
          65 63 73 71 73 63
          64 66 72 74 72 66
          73 75 65 65 75 67
          68 76 66 74 66 76
          68 67 76 75 76 67
          69 72 77 70 69 77
          71 70 77 73 71 77
          72 74 77 75 73 77
          74 76 77 76 75 77
        </DataArray>
        <DataArray type="Int64" Name="offsets" format="ascii" RangeMin="3" RangeMax="456">
          3 6 9 12 15 18
          21 24 27 30 33 36
          39 42 45 48 51 54
          57 60 63 66 69 72
          75 78 81 84 87 90
          93 96 99 102 105 108
          111 114 117 120 123 126
          129 132 135 138 141 144
          147 150 153 156 159 162
          165 168 171 174 177 180
          183 186 189 192 195 198
          201 204 207 210 213 216
          219 222 225 228 231 234
          237 240 243 246 249 252
          255 258 261 264 267 270
          273 276 279 282 285 288
          291 294 297 300 303 306
          309 312 315 318 321 324
          327 330 333 336 339 342
          345 348 351 354 357 360
          363 366 369 372 375 378
          381 384 387 390 393 396
          399 402 405 408 411 414
          417 420 423 426 429 432
          435 438 441 444 447 450
          453 456
        </DataArray>
      </Polys>
    </Piece>
  </PolyData>
</VTKFile>
