<VTKFile type="PolyData" version="0.1" byte_order="LittleEndian" header_type="UInt64">
  <PolyData>
    <Piece NumberOfPoints="42" NumberOfVerts="0" NumberOfLines="0" NumberOfStrips="0" NumberOfPolys="80">
      <PointData>
      </PointData>
      <CellData Scalars="STLSolidLabeling">
        <DataArray type="Float32" Name="STLSolidLabeling" format="ascii" RangeMin="0" RangeMax="0">
          0 0 0 0 0 0
          0 0 0 0 0 0
          0 0 0 0 0 0
          0 0 0 0 0 0
          0 0 0 0 0 0
          0 0 0 0 0 0
          0 0 0 0 0 0
          0 0 0 0 0 0
          0 0 0 0 0 0
          0 0 0 0 0 0
          0 0 0 0 0 0
          0 0 0 0 0 0
          0 0 0 0 0 0
          0 0
        </DataArray>
      </CellData>
      <Points>
        <DataArray type="Float32" Name="Points" NumberOfComponents="3" format="ascii" RangeMin="0.0049124538057" RangeMax="0.036793415388">
          0.0027140001766 -0.036555994302 -0.0031699999236 0.0072050001472 -0.0041309967637 -0.0011429999722
          -0.0032669999637 -0.0048350021243 -0.0020039998926 0.0063129998744 -0.0044559910893 -0.0074399998412
          0.0010460000485 -0.0050489977002 -0.011988000013 -0.0036869999021 -0.0050159916282 -0.0071209999733
          0.0050949999131 -0.0096989944577 -0.0061960001476 0.0051199998707 -0.0096159949899 -0.00085599999875
          0.0024810000323 -0.0040000006557 0.0014059999958 0.0024050001521 -0.008973993361 0.0010150000453
          0.00204700022 -0.01048899442 -0.01080499962 -0.0027700001374 -0.010308988392 -0.0065460000187
          -0.0023860000074 -0.0099499896169 -0.0022330000065 0.0060040000826 -0.035499993712 -0.00018499999715
          0.0036220001057 -0.034801993519 0.00070600002073 0.0023180001881 -0.036210987717 -0.0030350000598
          0.0044360002503 -0.033225990832 -0.006682000123 -0.00014099993859 -0.031618990004 -0.0032329999376
          0.0068589998409 -0.031013987958 -0.00207399996 0.0040009999648 -0.014954991639 -0.0047610001639
          0.0046190000139 -0.01530700177 -0.00050099997316 0.0024910001084 -0.014178000391 0.00077699997928
          0.0020010001026 -0.016016997397 -0.008713000454 -0.0011380002834 -0.014844991267 -0.00095299998065
          -0.0018020002171 -0.015593998134 -0.0060970000923 0.0096869999543 -0.03122099489 0.0018469999777
          0.0059199999087 -0.034512985498 0.0029909999575 0.0044100000523 -0.034583989531 0.0026799999177
          0.0013710001949 -0.03026599437 -0.00014800000645 0.0040450002998 -0.029433988035 0.002286999952
          0.00028600005317 -0.02517799288 -9.9999999748e-007 -0.00096500013024 -0.026255987585 -0.0040520001203
          0.003316000104 -0.027491994202 -0.005855999887 0.0052669998258 -0.025700993836 -0.0029990000185
          0.0066840001382 -0.026739992201 0.0015920000151 0.0050460002385 -0.0214169994 0.00069600000279
          0.0041140001267 -0.020419992507 -0.0039260000922 0.0023520002142 -0.019309990108 0.0010049999692
          0.0022050000262 -0.021852992475 -0.0074599999934 -0.00029399993946 -0.019925989211 -5.8000001445e-005
          -0.0013100001961 -0.020897991955 -0.0049310000613 0.0032510000747 -0.024353988469 0.0016820000019
        </DataArray>
      </Points>
      <Verts>
        <DataArray type="Int64" Name="connectivity" format="ascii" RangeMin="1e+299" RangeMax="-1e+299">
        </DataArray>
        <DataArray type="Int64" Name="offsets" format="ascii" RangeMin="1e+299" RangeMax="-1e+299">
        </DataArray>
      </Verts>
      <Lines>
        <DataArray type="Int64" Name="connectivity" format="ascii" RangeMin="1e+299" RangeMax="-1e+299">
        </DataArray>
        <DataArray type="Int64" Name="offsets" format="ascii" RangeMin="1e+299" RangeMax="-1e+299">
        </DataArray>
      </Lines>
      <Strips>
        <DataArray type="Int64" Name="connectivity" format="ascii" RangeMin="1e+299" RangeMax="-1e+299">
        </DataArray>
        <DataArray type="Int64" Name="offsets" format="ascii" RangeMin="1e+299" RangeMax="-1e+299">
        </DataArray>
      </Strips>
      <Polys>
        <DataArray type="Int64" Name="connectivity" format="ascii" RangeMin="0" RangeMax="41">
          0 1 2 1 3 2
          3 4 2 5 2 4
          3 1 6 7 6 1
          1 8 7 9 7 8
          4 3 10 6 10 3
          10 11 4 5 4 11
          5 11 2 12 2 11
          8 2 9 12 9 2
          13 14 0 14 15 0
          16 0 17 15 17 0
          16 18 0 13 0 18
          6 7 19 19 7 20
          9 21 7 20 7 21
          10 6 22 19 22 6
          9 12 21 23 21 12
          10 22 11 24 11 22
          23 12 24 11 24 12
          18 25 13 26 13 25
          13 26 14 27 14 26
          28 14 29 27 29 14
          15 14 17 17 14 28
          30 31 28 17 28 31
          16 17 32 31 32 17
          16 32 18 33 18 32
          33 34 18 25 18 34
          35 36 20 19 20 36
          21 37 20 35 20 37
          19 36 22 38 22 36
          21 23 37 37 23 39
          38 40 22 24 22 40
          24 40 23 39 23 40
          25 29 26 29 27 26
          41 29 34 29 25 34
          28 29 30 41 30 29
          30 41 39 37 39 41
          39 40 30 31 30 40
          32 31 38 38 31 40
          36 33 38 32 38 33
          34 33 35 36 35 33
          34 35 41 37 41 35
        </DataArray>
        <DataArray type="Int64" Name="offsets" format="ascii" RangeMin="3" RangeMax="240">
          3 6 9 12 15 18
          21 24 27 30 33 36
          39 42 45 48 51 54
          57 60 63 66 69 72
          75 78 81 84 87 90
          93 96 99 102 105 108
          111 114 117 120 123 126
          129 132 135 138 141 144
          147 150 153 156 159 162
          165 168 171 174 177 180
          183 186 189 192 195 198
          201 204 207 210 213 216
          219 222 225 228 231 234
          237 240
        </DataArray>
      </Polys>
    </Piece>
  </PolyData>
</VTKFile>
