<VTKFile type="PolyData" version="0.1" byte_order="LittleEndian" header_type="UInt64">
  <PolyData>
    <Piece NumberOfPoints="42" NumberOfVerts="0" NumberOfLines="0" NumberOfStrips="0" NumberOfPolys="80">
      <PointData>
      </PointData>
      <CellData Scalars="STLSolidLabeling">
        <DataArray type="Float32" Name="STLSolidLabeling" format="ascii" RangeMin="0" RangeMax="0">
          0 0 0 0 0 0
          0 0 0 0 0 0
          0 0 0 0 0 0
          0 0 0 0 0 0
          0 0 0 0 0 0
          0 0 0 0 0 0
          0 0 0 0 0 0
          0 0 0 0 0 0
          0 0 0 0 0 0
          0 0 0 0 0 0
          0 0 0 0 0 0
          0 0 0 0 0 0
          0 0 0 0 0 0
          0 0
        </DataArray>
      </CellData>
      <Points>
        <DataArray type="Float32" Name="Points" NumberOfComponents="3" format="ascii" RangeMin="0.0014210976606" RangeMax="0.034232089321">
          -0.00071349984501 3.4272671368e-009 -0.0012289981823 0.0045165000483 0.033359009773 0.0039620017633
          -0.0059664994478 0.032850001007 0.0029120009858 0.0036985001061 0.033604998142 -0.0023499995004
          -0.0015254999744 0.033474002033 -0.0069999983534 -0.0063234996051 0.033132005483 -0.0022069986444
          0.0023395002354 0.028074998409 -0.0016299996059 0.0022975001484 0.027677003294 0.0036950011272
          -0.00023949996103 0.033328000456 0.0064570000395 -0.00042749999557 0.028210002929 0.0055880015716
          -0.0006674999604 0.027715001255 -0.0063330000266 -0.0055374996737 0.027582008392 -0.0021319992375
          -0.0052014999092 0.027558002621 0.0022020016331 0.002564500086 0.00078000471694 0.0018850017805
          0.00018550024834 0.0014549974585 0.0028100006748 -0.0011035000207 0.00035100028617 -0.0010659981053
          0.0011335000163 0.0037470047828 -0.0043859994039 -0.0034524998628 0.005161005538 -0.00085199880414
          0.0035505001433 0.005587998312 0.00044500196236 0.0011035000207 0.022513005883 -0.00071999873035
          0.0016585000558 0.021754000336 0.0034960017074 -0.0004614997888 0.02283700183 0.0048510013148
          -0.00087049987633 0.021798003465 -0.0047819996253 -0.0040844995528 0.022351998836 0.0030200008769
          -0.0046995002776 0.022051010281 -0.0021819982212 0.0063235000707 0.0049790027551 0.0043640015647
          0.0024625000078 0.0015160028124 0.0051410002634 0.00095350004267 0.0014909986639 0.0048060016707
          -0.0019485001685 0.0062630060129 0.0023690008093 0.00071450008545 0.0068680080585 0.0049060015008
          -0.0029154997319 0.01153800264 0.002992001595 -0.0041404999793 0.01080499962 -0.0011609985959
          0.00013749988284 0.0096289999783 -0.0030249997508 0.002093499992 0.011199001223 1.6001269614e-005
          0.0034275001381 0.0096880085766 0.0045050000772 0.0019254999934 0.015306998044 0.0041050007567
          0.0010765000479 0.016772005707 -0.0004129994486 -0.0007245001616 0.017500001937 0.0045830002055
          -0.00082149973605 0.015633005649 -0.004092999734 -0.0033724997193 0.016994003206 0.0034330014605
          -0.0043484997004 0.016442004591 -0.0015249985736 4.8499903642e-005 0.012198004872 0.0047830017284
        </DataArray>
      </Points>
      <Verts>
        <DataArray type="Int64" Name="connectivity" format="ascii" RangeMin="1e+299" RangeMax="-1e+299">
        </DataArray>
        <DataArray type="Int64" Name="offsets" format="ascii" RangeMin="1e+299" RangeMax="-1e+299">
        </DataArray>
      </Verts>
      <Lines>
        <DataArray type="Int64" Name="connectivity" format="ascii" RangeMin="1e+299" RangeMax="-1e+299">
        </DataArray>
        <DataArray type="Int64" Name="offsets" format="ascii" RangeMin="1e+299" RangeMax="-1e+299">
        </DataArray>
      </Lines>
      <Strips>
        <DataArray type="Int64" Name="connectivity" format="ascii" RangeMin="1e+299" RangeMax="-1e+299">
        </DataArray>
        <DataArray type="Int64" Name="offsets" format="ascii" RangeMin="1e+299" RangeMax="-1e+299">
        </DataArray>
      </Strips>
      <Polys>
        <DataArray type="Int64" Name="connectivity" format="ascii" RangeMin="0" RangeMax="41">
          0 1 2 1 3 2
          3 4 2 5 2 4
          3 1 6 7 6 1
          1 8 7 7 8 9
          4 3 10 6 10 3
          10 11 4 5 4 11
          5 11 2 12 2 11
          8 2 9 12 9 2
          13 14 0 15 0 14
          16 0 17 15 17 0
          18 13 16 0 16 13
          6 7 19 20 19 7
          9 21 7 20 7 21
          10 6 22 19 22 6
          9 12 21 23 21 12
          10 22 11 24 11 22
          23 12 24 11 24 12
          18 25 13 13 25 26
          13 26 14 27 14 26
          28 14 29 27 29 14
          15 14 17 28 17 14
          30 31 28 31 17 28
          16 17 32 31 32 17
          16 32 18 33 18 32
          33 34 18 25 18 34
          35 36 20 19 20 36
          21 37 20 37 35 20
          19 36 22 22 36 38
          21 23 37 37 23 39
          38 40 22 24 22 40
          24 40 23 39 23 40
          25 29 26 27 26 29
          41 29 34 25 34 29
          28 29 30 41 30 29
          30 41 39 37 39 41
          39 40 30 31 30 40
          32 31 38 40 38 31
          36 33 38 32 38 33
          34 33 35 36 35 33
          34 35 41 37 41 35
        </DataArray>
        <DataArray type="Int64" Name="offsets" format="ascii" RangeMin="3" RangeMax="240">
          3 6 9 12 15 18
          21 24 27 30 33 36
          39 42 45 48 51 54
          57 60 63 66 69 72
          75 78 81 84 87 90
          93 96 99 102 105 108
          111 114 117 120 123 126
          129 132 135 138 141 144
          147 150 153 156 159 162
          165 168 171 174 177 180
          183 186 189 192 195 198
          201 204 207 210 213 216
          219 222 225 228 231 234
          237 240
        </DataArray>
      </Polys>
    </Piece>
  </PolyData>
</VTKFile>
