<VTKFile type="PolyData" version="0.1" byte_order="LittleEndian" header_type="UInt64">
  <PolyData>
    <Piece NumberOfPoints="27" NumberOfVerts="0" NumberOfLines="0" NumberOfStrips="0" NumberOfPolys="50">
      <PointData>
      </PointData>
      <CellData Scalars="STLSolidLabeling">
        <DataArray type="Float32" Name="STLSolidLabeling" format="ascii" RangeMin="0" RangeMax="0">
          0 0 0 0 0 0
          0 0 0 0 0 0
          0 0 0 0 0 0
          0 0 0 0 0 0
          0 0 0 0 0 0
          0 0 0 0 0 0
          0 0 0 0 0 0
          0 0 0 0 0 0
          0 0
        </DataArray>
      </CellData>
      <Points>
        <DataArray type="Float32" Name="Points" NumberOfComponents="3" format="ascii" RangeMin="0.0039761035722" RangeMax="0.024783631061">
          0.0017180000432 -0.0045020091347 0.0045280000195 0.0047100000083 -0.0020000149962 -0.001019999967
          -0.0024210000411 -0.0029920150992 -0.00099800003227 0.0025559999049 -0.002319019055 -0.0059569999576
          0.0047699999996 -0.0057770120911 -0.001287000021 0.0017000000225 -0.0074710207991 0.0035800000187
          -0.0020729999524 -0.0069600152783 -0.0016860000324 0.0026469998993 -0.0065690088086 -0.0057149999775
          0.0038540000096 -0.009371008724 -0.00067300000228 0.0013699999545 -0.010589014739 0.0031729999464
          -0.00092399999266 -0.010669019073 -0.0011340000201 0.0017719999887 -0.010202016681 -0.0036220001057
          0.003837000113 -0.013161014766 -0.00035300001036 0.0014700000174 -0.01342901215 0.0025539998896
          -0.00061300001107 -0.014600019902 -0.00048499999684 0.0016830000095 -0.014319013804 -0.0026859999634
          0.0039650001563 -0.016777019948 0.00060600001598 0.0028220000677 -0.016240011901 0.0032850001007
          -0.0001590000029 -0.018543016165 0.00010900000052 0.0024540000595 -0.018900018185 -0.0022120000795
          0.0050280001014 -0.020307015628 0.0012130000396 0.0038620000705 -0.019095014781 0.0037569999695
          0.001425000024 -0.021910008043 0.0011549999472 0.0035149999894 -0.022899013013 -0.0009410000057
          0.004747999832 -0.021985020489 0.0041290000081 0.0041379998438 -0.023833017796 0.0021679999772
          0.0036559998989 -0.024336021394 0.0029360000044
        </DataArray>
      </Points>
      <Verts>
        <DataArray type="Int64" Name="connectivity" format="ascii" RangeMin="1e+299" RangeMax="-1e+299">
        </DataArray>
        <DataArray type="Int64" Name="offsets" format="ascii" RangeMin="1e+299" RangeMax="-1e+299">
        </DataArray>
      </Verts>
      <Lines>
        <DataArray type="Int64" Name="connectivity" format="ascii" RangeMin="1e+299" RangeMax="-1e+299">
        </DataArray>
        <DataArray type="Int64" Name="offsets" format="ascii" RangeMin="1e+299" RangeMax="-1e+299">
        </DataArray>
      </Lines>
      <Strips>
        <DataArray type="Int64" Name="connectivity" format="ascii" RangeMin="1e+299" RangeMax="-1e+299">
        </DataArray>
        <DataArray type="Int64" Name="offsets" format="ascii" RangeMin="1e+299" RangeMax="-1e+299">
        </DataArray>
      </Strips>
      <Polys>
        <DataArray type="Int64" Name="connectivity" format="ascii" RangeMin="0" RangeMax="26">
          0 1 2 3 2 1
          1 0 4 5 4 0
          2 6 0 5 0 6
          7 3 4 1 4 3
          3 7 2 6 2 7
          4 5 8 9 8 5
          6 10 5 9 5 10
          7 4 11 4 8 11
          7 11 6 10 6 11
          8 9 12 13 12 9
          14 13 10 13 9 10
          8 12 11 15 11 12
          11 15 10 14 10 15
          12 13 16 17 16 13
          18 17 14 13 14 17
          19 15 16 12 16 15
          19 18 15 14 15 18
          20 16 21 17 21 16
          22 21 18 17 18 21
          23 19 20 16 20 19
          18 19 22 22 19 23
          21 24 20 24 25 20
          22 26 21 24 21 26
          23 20 25 23 25 22
          26 22 25 25 24 26
        </DataArray>
        <DataArray type="Int64" Name="offsets" format="ascii" RangeMin="3" RangeMax="150">
          3 6 9 12 15 18
          21 24 27 30 33 36
          39 42 45 48 51 54
          57 60 63 66 69 72
          75 78 81 84 87 90
          93 96 99 102 105 108
          111 114 117 120 123 126
          129 132 135 138 141 144
          147 150
        </DataArray>
      </Polys>
    </Piece>
  </PolyData>
</VTKFile>
