<VTKFile type="PolyData" version="0.1" byte_order="LittleEndian" header_type="UInt64">
  <PolyData>
    <Piece NumberOfPoints="78" NumberOfVerts="0" NumberOfLines="0" NumberOfStrips="0" NumberOfPolys="152">
      <PointData>
      </PointData>
      <CellData Scalars="STLSolidLabeling">
        <DataArray type="Float32" Name="STLSolidLabeling" format="ascii" RangeMin="0" RangeMax="0">
          0 0 0 0 0 0
          0 0 0 0 0 0
          0 0 0 0 0 0
          0 0 0 0 0 0
          0 0 0 0 0 0
          0 0 0 0 0 0
          0 0 0 0 0 0
          0 0 0 0 0 0
          0 0 0 0 0 0
          0 0 0 0 0 0
          0 0 0 0 0 0
          0 0 0 0 0 0
          0 0 0 0 0 0
          0 0 0 0 0 0
          0 0 0 0 0 0
          0 0 0 0 0 0
          0 0 0 0 0 0
          0 0 0 0 0 0
          0 0 0 0 0 0
          0 0 0 0 0 0
          0 0 0 0 0 0
          0 0 0 0 0 0
          0 0 0 0 0 0
          0 0 0 0 0 0
          0 0 0 0 0 0
          0 0
        </DataArray>
      </CellData>
      <Points>
        <DataArray type="Float32" Name="Points" NumberOfComponents="3" format="ascii" RangeMin="0.028649064375" RangeMax="0.061980438749">
          0.0056825000793 -0.039691995829 -0.036283999681 0.0075614997186 -0.045168001205 -0.037700999528
          0.0053725000471 -0.040094997734 -0.039110001177 0.0081544993445 -0.045050997287 -0.038901001215
          0.0045804996043 -0.034194994718 -0.03588699922 0.0030135000125 -0.035213995725 -0.038763001561
          0.0040974998847 -0.042763996869 -0.038975998759 0.0028134998865 -0.037647996098 -0.039432998747
          0.0021024998277 -0.03243399784 -0.039680000395 0.0058224997483 -0.044062998146 -0.035254001617
          0.0037734999787 -0.03910799697 -0.035002999008 0.0033894998487 -0.033554997295 -0.034423001111
          0.003949499689 -0.048804994673 -0.035629998893 0.0042334999889 -0.04835299775 -0.038543999195
          0.0028614997864 -0.029203999788 -0.038738001138 0.0033934998792 -0.028533000499 -0.036159001291
          0.0020664997865 -0.027118999511 -0.039799001068 0.0027474998496 -0.028098996729 -0.033865001053
          0.0005504998262 -0.037767995149 -0.038488000631 0.0020354997832 -0.042939994484 -0.038862001151
          -0.00053550023586 -0.032499995083 -0.038414999843 -0.0010205002036 -0.027156997472 -0.038998000324
          0.0064674997702 -0.045903000981 -0.030814999714 0.0036054998636 -0.041105996817 -0.03068099916
          0.0015974998241 -0.035721998662 -0.030845999718 0.0035374998115 -0.048995997757 -0.03354300186
          0.0018804997671 -0.029851999134 -0.030259000137 -0.00036950022331 -0.047911997885 -0.033560998738
          0.0026014999021 -0.048732999712 -0.037643000484 0.0028424998745 -0.049164999276 -0.0322239995
          0.0004764998157 -0.043931994587 -0.036784999073 0.0033154999837 -0.022764001042 -0.035868998617
          0.0033534998074 -0.023038994521 -0.038874998689 0.0020074998029 -0.021802995354 -0.04001500085
          0.0026024999097 -0.022618997842 -0.033323999494 -0.00092150026467 -0.021761994809 -0.039521001279
          0.001571499859 -0.024052996188 -0.029962999746 -0.00045450017205 -0.038539994508 -0.036178998649
          -0.0018825001316 -0.033300999552 -0.035861000419 -0.0028085000813 -0.027950998396 -0.035829000175
          -0.0032804999501 -0.022495996207 -0.035835999995 0.0022204997949 -0.044006999582 -0.03136099875
          0.0014434998157 -0.038798000664 -0.031092999503 0.00073649978731 -0.033592995256 -0.030829999596
          -0.00010650021432 -0.028355997056 -0.030559999868 -0.00071250018664 -0.023115996271 -0.030179999769
          0.00010849979299 -0.042850997299 -0.033530000597 -0.00063950021286 -0.037925999612 -0.032830998302
          0.0041664997116 -0.017246995121 -0.038968000561 0.0041764997877 -0.017006997019 -0.036191999912
          0.0023004999384 -0.016545999795 -0.040594000369 0.0032304998022 -0.017071995884 -0.032917000353
          -0.00079150020611 -0.016378995031 -0.039971001446 0.0019184998237 -0.018142994493 -0.029834000394
          -0.0038014999591 -0.017062995583 -0.035806000233 5.3499785281e-005 -0.018016997725 -0.029218999669
          -0.001773500233 -0.033006001264 -0.032248001546 -0.0026035001501 -0.028009001166 -0.032156001776
          -0.0029865000397 -0.022959996015 -0.032058000565 -0.0033955001272 -0.017902996391 -0.03192500025
          0.0060815000907 -0.011784995906 -0.038646001369 0.0067524998449 -0.011916997842 -0.036113999784
          0.0034204998519 -0.011418993585 -0.040954001248 0.0062514999881 -0.012752997689 -0.032039999962
          -0.0016255002702 -0.011130998842 -0.040931999683 0.0044324998744 -0.013189996593 -0.028427999467
          -0.0041545000859 -0.011621999554 -0.036095000803 5.6499808124e-005 -0.012989993207 -0.027715999633
          -0.0040505002253 -0.012880998664 -0.031801998615 0.0052034999244 -0.006047997158 -0.03924800083
          0.0068254997022 -0.0064009982161 -0.036504000425 0.0060804998502 -0.0072609963827 -0.031872000545
          -0.0010345001938 -0.0060000005178 -0.039597999305 0.0048404997215 -0.007472995203 -0.028162000701
          -0.0035605002195 -0.0063139977865 -0.035009998828 0.000342499814 -0.0078129945323 -0.027560999617
          -0.0035204999149 -0.0078949956223 -0.031109999865 0.0022524998058 -0.0077249961905 -0.03444499895
        </DataArray>
      </Points>
      <Verts>
        <DataArray type="Int64" Name="connectivity" format="ascii" RangeMin="1e+299" RangeMax="-1e+299">
        </DataArray>
        <DataArray type="Int64" Name="offsets" format="ascii" RangeMin="1e+299" RangeMax="-1e+299">
        </DataArray>
      </Verts>
      <Lines>
        <DataArray type="Int64" Name="connectivity" format="ascii" RangeMin="1e+299" RangeMax="-1e+299">
        </DataArray>
        <DataArray type="Int64" Name="offsets" format="ascii" RangeMin="1e+299" RangeMax="-1e+299">
        </DataArray>
      </Lines>
      <Strips>
        <DataArray type="Int64" Name="connectivity" format="ascii" RangeMin="1e+299" RangeMax="-1e+299">
        </DataArray>
        <DataArray type="Int64" Name="offsets" format="ascii" RangeMin="1e+299" RangeMax="-1e+299">
        </DataArray>
      </Strips>
      <Polys>
        <DataArray type="Int64" Name="connectivity" format="ascii" RangeMin="0" RangeMax="77">
          0 1 2 3 2 1
          4 0 5 2 5 0
          3 6 2 7 2 6
          2 7 5 8 5 7
          1 0 9 9 0 10
          0 4 10 11 10 4
          1 9 12 3 1 12
          12 13 3 13 6 3
          5 14 4 15 4 14
          16 14 8 5 8 14
          17 11 15 4 15 11
          18 7 19 19 7 6
          20 8 18 7 18 8
          6 13 19 21 16 20
          8 20 16 22 9 23
          10 23 9 23 10 24
          11 24 10 22 25 9
          12 9 25 24 11 26
          17 26 11 27 28 29
          28 12 29 25 29 12
          12 28 13 30 19 28
          13 28 19 31 15 32
          14 32 15 33 32 16
          14 16 32 34 17 31
          31 17 15 21 35 16
          33 16 35 26 17 36
          34 36 17 30 37 19
          19 37 18 20 18 38
          37 38 18 21 20 39
          38 39 20 35 21 40
          39 40 21 22 23 41
          42 41 23 23 24 42
          43 42 24 22 29 25
          22 41 29 44 43 26
          24 26 43 45 44 36
          26 36 44 28 27 30
          30 27 46 29 41 27
          46 27 41 47 37 46
          30 46 37 32 48 31
          31 48 49 50 48 33
          33 48 32 49 51 31
          51 34 31 50 33 52
          35 52 33 36 34 53
          34 51 53 52 35 54
          40 54 35 36 53 45
          55 45 53 56 38 47
          37 47 38 38 56 39
          57 39 56 40 39 58
          58 39 57 54 40 59
          58 59 40 41 42 46
          47 46 42 56 47 43
          42 43 47 57 56 44
          43 44 56 44 45 57
          58 57 45 55 59 45
          58 45 59 48 60 49
          61 49 60 60 48 62
          50 62 48 61 63 49
          63 51 49 64 62 52
          50 52 62 63 65 51
          53 51 65 64 52 66
          54 66 52 65 67 53
          55 53 67 66 54 68
          59 68 54 67 68 55
          59 55 68 69 70 60
          61 60 70 69 60 62
          70 71 61 61 71 63
          69 62 72 72 62 64
          65 63 73 71 73 63
          64 66 72 74 72 66
          73 75 65 65 75 67
          68 76 66 74 66 76
          68 67 76 75 76 67
          69 72 77 70 69 77
          71 70 77 73 71 77
          72 74 77 75 73 77
          74 76 77 76 75 77
        </DataArray>
        <DataArray type="Int64" Name="offsets" format="ascii" RangeMin="3" RangeMax="456">
          3 6 9 12 15 18
          21 24 27 30 33 36
          39 42 45 48 51 54
          57 60 63 66 69 72
          75 78 81 84 87 90
          93 96 99 102 105 108
          111 114 117 120 123 126
          129 132 135 138 141 144
          147 150 153 156 159 162
          165 168 171 174 177 180
          183 186 189 192 195 198
          201 204 207 210 213 216
          219 222 225 228 231 234
          237 240 243 246 249 252
          255 258 261 264 267 270
          273 276 279 282 285 288
          291 294 297 300 303 306
          309 312 315 318 321 324
          327 330 333 336 339 342
          345 348 351 354 357 360
          363 366 369 372 375 378
          381 384 387 390 393 396
          399 402 405 408 411 414
          417 420 423 426 429 432
          435 438 441 444 447 450
          453 456
        </DataArray>
      </Polys>
    </Piece>
  </PolyData>
</VTKFile>
