<VTKFile type="PolyData" version="0.1" byte_order="LittleEndian" header_type="UInt64">
  <PolyData>
    <Piece NumberOfPoints="27" NumberOfVerts="0" NumberOfLines="0" NumberOfStrips="0" NumberOfPolys="50">
      <PointData>
      </PointData>
      <CellData Scalars="STLSolidLabeling">
        <DataArray type="Float32" Name="STLSolidLabeling" format="ascii" RangeMin="0" RangeMax="0">
          0 0 0 0 0 0
          0 0 0 0 0 0
          0 0 0 0 0 0
          0 0 0 0 0 0
          0 0 0 0 0 0
          0 0 0 0 0 0
          0 0 0 0 0 0
          0 0 0 0 0 0
          0 0
        </DataArray>
      </CellData>
      <Points>
        <DataArray type="Float32" Name="Points" NumberOfComponents="3" format="ascii" RangeMin="0.0036401935014" RangeMax="0.022932771835">
          -0.00097999966238 -0.0049080052413 0.010463999584 0.0020299998578 -0.0031250070315 0.0061459983699
          -0.0038589998148 -0.003040010808 0.0057989987545 0.00050100020599 -0.0030000011902 0.002000000095
          0.0016269999323 -0.0061850049533 0.0058140004985 -0.0013109996216 -0.0072870054282 0.0095969997346
          -0.0040299999528 -0.0062790014781 0.0051309983246 3.9000391553e-005 -0.0064580091275 0.0020710004028
          0.00041300043813 -0.0089940084144 0.0061630005948 -0.0019409997622 -0.0097600026056 0.0091529991478
          -0.0035859998316 -0.0094380034134 0.0055219973437 -0.0012219996424 -0.0093380017206 0.003628998762
          -8.3999846538e-005 -0.012068013661 0.0063069998287 -0.0021780000534 -0.012057001702 0.0085639990866
          -0.0038519997615 -0.012674014084 0.0059459987096 -0.0018479997525 -0.012681002729 0.0042629982345
          -0.00047399956384 -0.015033002011 0.0069849989377 -0.0014689998934 -0.014518002979 0.0091379992664
          -0.0039999997243 -0.015937009826 0.0063309981488 -0.0018129997188 -0.016497010365 0.0045449989848
          -7.999981608e-005 -0.018037000671 0.0074219997041 -0.0010029996047 -0.016970003024 0.0094849988818
          -0.003187000053 -0.018884012476 0.0071569993161 -0.0015119995223 -0.019896009937 0.0055110002868
          -0.00066099979449 -0.019429007545 0.0097409989685 -0.0012819996336 -0.020802998915 0.0080529991537
          -0.0017729998799 -0.021168002859 0.0086419992149
        </DataArray>
      </Points>
      <Verts>
        <DataArray type="Int64" Name="connectivity" format="ascii" RangeMin="1e+299" RangeMax="-1e+299">
        </DataArray>
        <DataArray type="Int64" Name="offsets" format="ascii" RangeMin="1e+299" RangeMax="-1e+299">
        </DataArray>
      </Verts>
      <Lines>
        <DataArray type="Int64" Name="connectivity" format="ascii" RangeMin="1e+299" RangeMax="-1e+299">
        </DataArray>
        <DataArray type="Int64" Name="offsets" format="ascii" RangeMin="1e+299" RangeMax="-1e+299">
        </DataArray>
      </Lines>
      <Strips>
        <DataArray type="Int64" Name="connectivity" format="ascii" RangeMin="1e+299" RangeMax="-1e+299">
        </DataArray>
        <DataArray type="Int64" Name="offsets" format="ascii" RangeMin="1e+299" RangeMax="-1e+299">
        </DataArray>
      </Strips>
      <Polys>
        <DataArray type="Int64" Name="connectivity" format="ascii" RangeMin="0" RangeMax="26">
          0 1 2 3 2 1
          1 0 4 5 4 0
          2 6 0 5 0 6
          7 3 4 1 4 3
          3 7 2 6 2 7
          4 5 8 8 5 9
          6 10 5 9 5 10
          7 4 11 8 11 4
          7 11 6 10 6 11
          8 9 12 13 12 9
          14 13 10 9 10 13
          8 12 11 15 11 12
          11 15 10 14 10 15
          12 13 16 17 16 13
          18 17 14 13 14 17
          19 15 16 15 12 16
          19 18 15 14 15 18
          20 16 21 17 21 16
          22 21 18 17 18 21
          23 19 20 16 20 19
          18 19 22 22 19 23
          21 24 20 25 20 24
          22 26 21 24 21 26
          23 20 25 23 25 22
          26 22 25 25 24 26
        </DataArray>
        <DataArray type="Int64" Name="offsets" format="ascii" RangeMin="3" RangeMax="150">
          3 6 9 12 15 18
          21 24 27 30 33 36
          39 42 45 48 51 54
          57 60 63 66 69 72
          75 78 81 84 87 90
          93 96 99 102 105 108
          111 114 117 120 123 126
          129 132 135 138 141 144
          147 150
        </DataArray>
      </Polys>
    </Piece>
  </PolyData>
</VTKFile>
