<VTKFile type="PolyData" version="0.1" byte_order="LittleEndian" header_type="UInt64">
  <PolyData>
    <Piece NumberOfPoints="78" NumberOfVerts="0" NumberOfLines="0" NumberOfStrips="0" NumberOfPolys="152">
      <PointData>
      </PointData>
      <CellData Scalars="STLSolidLabeling">
        <DataArray type="Float32" Name="STLSolidLabeling" format="ascii" RangeMin="0" RangeMax="0">
          0 0 0 0 0 0
          0 0 0 0 0 0
          0 0 0 0 0 0
          0 0 0 0 0 0
          0 0 0 0 0 0
          0 0 0 0 0 0
          0 0 0 0 0 0
          0 0 0 0 0 0
          0 0 0 0 0 0
          0 0 0 0 0 0
          0 0 0 0 0 0
          0 0 0 0 0 0
          0 0 0 0 0 0
          0 0 0 0 0 0
          0 0 0 0 0 0
          0 0 0 0 0 0
          0 0 0 0 0 0
          0 0 0 0 0 0
          0 0 0 0 0 0
          0 0 0 0 0 0
          0 0 0 0 0 0
          0 0 0 0 0 0
          0 0 0 0 0 0
          0 0 0 0 0 0
          0 0 0 0 0 0
          0 0
        </DataArray>
      </CellData>
      <Points>
        <DataArray type="Float32" Name="Points" NumberOfComponents="3" format="ascii" RangeMin="0.014240541485" RangeMax="0.039965039644">
          0.015191145241 -0.01282349322 0.016436489299 0.016946146265 -0.02010448277 0.015562489629
          0.014743145555 -0.013740488328 0.0130774891 0.017665145919 -0.020197495818 0.014092489146
          0.014371145517 -0.0057464879937 0.016072489321 0.012335145846 -0.0073304926045 0.012747488916
          0.012941146269 -0.016961485147 0.01365048904 0.011855145916 -0.010478490032 0.01230948884
          0.011478144675 -0.0038924857508 0.011209488846 0.014962146059 -0.018177494407 0.018356489018
          0.012937145308 -0.011717491783 0.01789848879 0.012999145314 -0.0046054837294 0.017747489735
          0.012231145054 -0.024031490088 0.018629489467 0.012587144971 -0.023939490318 0.015031488612
          0.012716146186 0.00024951557862 0.011854489334 0.013456145301 0.0014445142588 0.014872489497
          0.011932145804 0.0027805150021 0.010249488987 0.012738145888 0.0024025097955 0.017584489658
          0.0091001456603 -0.010277488269 0.013473489322 0.010417146608 -0.016977488995 0.013814489357
          0.0082751456648 -0.0035394846927 0.012751488946 0.0081811454147 0.0031385153998 0.011225488968
          0.015625145286 -0.019864484668 0.024013489485 0.012595145032 -0.013547488488 0.023438489065
          0.010655146092 -0.0066164885648 0.022411489859 0.011736145243 -0.023911491036 0.021186489612
          0.011559145525 0.00083451281535 0.022220488638 0.0070831454359 -0.022195488214 0.020997488871
          0.010574145243 -0.024129495025 0.016181489453 0.010890144855 -0.023857489228 0.022808488458
          0.0084501449019 -0.017763495445 0.016482489184 0.013907145709 0.0087545095012 0.014337489381
          0.013892145827 0.0079395128414 0.010741489008 0.012358145788 0.0094415126368 0.0091704893857
          0.013083145022 0.0093955127522 0.017398489639 0.0088031450287 0.0098365126178 0.0097624892369
          0.011732146144 0.0082035092637 0.021687489003 0.0078311450779 -0.010800489224 0.016387488693
          0.0065891458653 -0.004029486794 0.015967488289 0.0059661460109 0.0027905136812 0.01518348977
          0.0059051453136 0.0096975145862 0.014337489381 0.010629145429 -0.01717749238 0.023060489446
          0.010175146163 -0.010511488654 0.022585488856 0.0098081454635 -0.0038564845454 0.022104488686
          0.0092781456187 0.0028515115846 0.021626489237 0.0090381456539 0.0095575107262 0.021280489862
          0.0081421453506 -0.015866488218 0.020257489756 0.0077031455003 -0.0094924876466 0.020346488804
          0.015426145867 0.015139515512 0.0097374888137 0.015493145213 0.015870515257 0.013061488979
          0.013202145696 0.015939515084 0.0076614888385 0.014373145998 0.016379516572 0.01703748852
          0.0094621451572 0.016527514905 0.0083904890344 0.012711144984 0.015628512949 0.020935488865
          0.0057821455412 0.016584511846 0.013538489118 0.010461146012 0.016052510589 0.021661488339
          0.006793145556 -0.0031094893347 0.02029648982 0.0062531461008 0.0032675147522 0.01963948831
          0.0062631457113 0.0096705136821 0.018982488662 0.0062421453185 0.016091514379 0.018366489559
          0.018274145201 0.02188751474 0.0092884888873 0.019107146189 0.02205151692 0.012374489568
          0.015044145286 0.022233512253 0.0064374892972 0.0184661448 0.02167551592 0.017436489463
          0.0089291455224 0.023057516664 0.006420488935 0.016254145652 0.021849516779 0.021876489744
          0.0058611459099 0.023417513818 0.012352488935 0.010955145583 0.022609513253 0.022708488628
          0.0059201461263 0.022487517446 0.017744489014 0.017738144845 0.029092514887 0.0076784892008
          0.019711146131 0.028924511746 0.011055489071 0.018777145073 0.028626510873 0.016795489937
          0.010147145018 0.029666515067 0.0072464887053 0.017291145399 0.029046515003 0.021319489926
          0.0070961457677 0.030210511759 0.012850489467 0.011791145429 0.029121512547 0.022100489587
          0.0070411455818 0.028820509091 0.017815489322 0.014045145363 0.027994515374 0.01375148911
        </DataArray>
      </Points>
      <Verts>
        <DataArray type="Int64" Name="connectivity" format="ascii" RangeMin="1e+299" RangeMax="-1e+299">
        </DataArray>
        <DataArray type="Int64" Name="offsets" format="ascii" RangeMin="1e+299" RangeMax="-1e+299">
        </DataArray>
      </Verts>
      <Lines>
        <DataArray type="Int64" Name="connectivity" format="ascii" RangeMin="1e+299" RangeMax="-1e+299">
        </DataArray>
        <DataArray type="Int64" Name="offsets" format="ascii" RangeMin="1e+299" RangeMax="-1e+299">
        </DataArray>
      </Lines>
      <Strips>
        <DataArray type="Int64" Name="connectivity" format="ascii" RangeMin="1e+299" RangeMax="-1e+299">
        </DataArray>
        <DataArray type="Int64" Name="offsets" format="ascii" RangeMin="1e+299" RangeMax="-1e+299">
        </DataArray>
      </Strips>
      <Polys>
        <DataArray type="Int64" Name="connectivity" format="ascii" RangeMin="0" RangeMax="77">
          0 1 2 3 2 1
          4 0 5 2 5 0
          3 6 2 7 2 6
          2 7 5 7 8 5
          1 0 9 10 9 0
          0 4 10 11 10 4
          1 9 12 3 1 12
          12 13 3 13 6 3
          5 14 4 15 4 14
          16 14 8 8 14 5
          17 11 15 4 15 11
          18 7 19 6 19 7
          20 8 18 7 18 8
          6 13 19 21 16 20
          8 20 16 22 9 23
          10 23 9 23 10 24
          11 24 10 22 25 9
          12 9 25 24 11 26
          17 26 11 27 28 29
          28 12 29 29 12 25
          12 28 13 19 13 30
          28 30 13 31 15 32
          15 14 32 33 32 16
          14 16 32 34 17 31
          31 17 15 21 35 16
          33 16 35 26 17 36
          34 36 17 30 37 19
          37 18 19 20 18 38
          37 38 18 21 20 39
          39 20 38 35 21 40
          39 40 21 22 23 41
          42 41 23 23 24 42
          42 24 43 22 29 25
          22 41 29 44 43 26
          26 43 24 45 44 36
          44 26 36 28 27 30
          30 27 46 29 41 27
          27 41 46 47 37 46
          46 37 30 32 48 31
          49 31 48 50 48 33
          32 33 48 49 51 31
          34 31 51 50 33 52
          35 52 33 36 34 53
          51 53 34 52 35 54
          40 54 35 36 53 45
          55 45 53 56 38 47
          37 47 38 38 56 39
          57 39 56 40 39 58
          57 58 39 54 40 59
          58 59 40 41 42 46
          47 46 42 56 47 43
          42 43 47 57 56 44
          43 44 56 44 45 57
          45 58 57 55 59 45
          58 45 59 48 60 49
          61 49 60 60 48 62
          50 62 48 61 63 49
          51 49 63 64 62 52
          50 52 62 63 65 51
          53 51 65 64 52 66
          66 52 54 65 67 53
          55 53 67 66 54 68
          59 68 54 67 68 55
          59 55 68 69 70 60
          61 60 70 69 60 62
          70 71 61 63 61 71
          69 62 72 64 72 62
          65 63 73 71 73 63
          64 66 72 74 72 66
          73 75 65 67 65 75
          68 76 66 76 74 66
          68 67 76 75 76 67
          69 72 77 70 69 77
          71 70 77 73 71 77
          72 74 77 75 73 77
          74 76 77 76 75 77
        </DataArray>
        <DataArray type="Int64" Name="offsets" format="ascii" RangeMin="3" RangeMax="456">
          3 6 9 12 15 18
          21 24 27 30 33 36
          39 42 45 48 51 54
          57 60 63 66 69 72
          75 78 81 84 87 90
          93 96 99 102 105 108
          111 114 117 120 123 126
          129 132 135 138 141 144
          147 150 153 156 159 162
          165 168 171 174 177 180
          183 186 189 192 195 198
          201 204 207 210 213 216
          219 222 225 228 231 234
          237 240 243 246 249 252
          255 258 261 264 267 270
          273 276 279 282 285 288
          291 294 297 300 303 306
          309 312 315 318 321 324
          327 330 333 336 339 342
          345 348 351 354 357 360
          363 366 369 372 375 378
          381 384 387 390 393 396
          399 402 405 408 411 414
          417 420 423 426 429 432
          435 438 441 444 447 450
          453 456
        </DataArray>
      </Polys>
    </Piece>
  </PolyData>
</VTKFile>
