<VTKFile type="PolyData" version="0.1" byte_order="LittleEndian" header_type="UInt64">
  <PolyData>
    <Piece NumberOfPoints="78" NumberOfVerts="0" NumberOfLines="0" NumberOfStrips="0" NumberOfPolys="152">
      <PointData>
      </PointData>
      <CellData Scalars="STLSolidLabeling">
        <DataArray type="Float32" Name="STLSolidLabeling" format="ascii" RangeMin="0" RangeMax="0">
          0 0 0 0 0 0
          0 0 0 0 0 0
          0 0 0 0 0 0
          0 0 0 0 0 0
          0 0 0 0 0 0
          0 0 0 0 0 0
          0 0 0 0 0 0
          0 0 0 0 0 0
          0 0 0 0 0 0
          0 0 0 0 0 0
          0 0 0 0 0 0
          0 0 0 0 0 0
          0 0 0 0 0 0
          0 0 0 0 0 0
          0 0 0 0 0 0
          0 0 0 0 0 0
          0 0 0 0 0 0
          0 0 0 0 0 0
          0 0 0 0 0 0
          0 0 0 0 0 0
          0 0 0 0 0 0
          0 0 0 0 0 0
          0 0 0 0 0 0
          0 0 0 0 0 0
          0 0 0 0 0 0
          0 0
        </DataArray>
      </CellData>
      <Points>
        <DataArray type="Float32" Name="Points" NumberOfComponents="3" format="ascii" RangeMin="0.028678456891" RangeMax="0.062056762639">
          0.0066825002432 -0.039691995829 -0.036283999681 0.0085614994168 -0.045168001205 -0.037700999528
          0.006372500211 -0.040094997734 -0.039110001177 0.0091544995084 -0.045050997287 -0.038901001215
          0.0055804997683 -0.034194994718 -0.03588699922 0.0040135001764 -0.035213995725 -0.038763001561
          0.0050975000486 -0.042763996869 -0.038975998759 0.0038134998176 -0.037647996098 -0.039432998747
          0.0031024999917 -0.03243399784 -0.039680000395 0.0068224999122 -0.044062998146 -0.035254001617
          0.0047734999098 -0.03910799697 -0.035002999008 0.0043894997798 -0.033554997295 -0.034423001111
          0.004949499853 -0.048804994673 -0.035629998893 0.0052335001528 -0.04835299775 -0.038543999195
          0.0038614997175 -0.029203999788 -0.038738001138 0.0043934998102 -0.028533000499 -0.036159001291
          0.0030664999504 -0.027118999511 -0.039799001068 0.0037474997807 -0.028098996729 -0.033865001053
          0.0015504999319 -0.037767995149 -0.038488000631 0.0030354999471 -0.042939994484 -0.038862001151
          0.00046449992806 -0.032499995083 -0.038414999843 -2.0500048777e-005 -0.027156997472 -0.038998000324
          0.0074674999341 -0.045903000981 -0.030814999714 0.0046055000275 -0.041105996817 -0.03068099916
          0.0025974998716 -0.035721998662 -0.030845999718 0.0045374999754 -0.048995997757 -0.03354300186
          0.0028804999311 -0.029851999134 -0.030259000137 0.00063049991149 -0.047911997885 -0.033560998738
          0.0036014998332 -0.048732999712 -0.037643000484 0.0038424998056 -0.049164999276 -0.0322239995
          0.0014764999505 -0.043931994587 -0.036784999073 0.0043155001476 -0.022764001042 -0.035868998617
          0.0043534999713 -0.023038994521 -0.038874998689 0.0030074999668 -0.021802995354 -0.04001500085
          0.0036024998408 -0.022618997842 -0.033323999494 7.849989197e-005 -0.021761994809 -0.039521001279
          0.0025714999065 -0.024052996188 -0.029962999746 0.00054549996275 -0.038539994508 -0.036178998649
          -0.0008824999677 -0.033300999552 -0.035861000419 -0.0018085000338 -0.027950998396 -0.035829000175
          -0.002280500019 -0.022495996207 -0.035835999995 0.0032204999588 -0.044006999582 -0.03136099875
          0.0024434998631 -0.038798000664 -0.031092999503 0.0017364999512 -0.033592995256 -0.030829999596
          0.00089349993505 -0.028355997056 -0.030559999868 0.00028749997728 -0.023115996271 -0.030179999769
          0.0011084999423 -0.042850997299 -0.033530000597 0.00036049995106 -0.037925999612 -0.032830998302
          0.0051664998755 -0.017246995121 -0.038968000561 0.0051764999516 -0.017006997019 -0.036191999912
          0.0033004998695 -0.016545999795 -0.040594000369 0.0042304997332 -0.017071995884 -0.032917000353
          0.00020849994326 -0.016378995031 -0.039971001446 0.0029184999876 -0.018142994493 -0.029834000394
          -0.002801500028 -0.017062995583 -0.035806000233 0.0010534998728 -0.018016997725 -0.029218999669
          -0.00077350006904 -0.033006001264 -0.032248001546 -0.0016035001026 -0.028009001166 -0.032156001776
          -0.0019865001086 -0.022959996015 -0.032058000565 -0.0023955001961 -0.017902996391 -0.03192500025
          0.0070815002546 -0.011784995906 -0.038646001369 0.0077525000088 -0.011916997842 -0.036113999784
          0.004420499783 -0.011418993585 -0.040954001248 0.0072515001521 -0.012752997689 -0.032039999962
          -0.00062550010625 -0.011130998842 -0.040931999683 0.0054325000383 -0.013189996593 -0.028427999467
          -0.0031545001548 -0.011621999554 -0.036095000803 0.0010564998956 -0.012989993207 -0.027715999633
          -0.0030505002942 -0.012880998664 -0.031801998615 0.0062035000883 -0.006047997158 -0.03924800083
          0.0078254994005 -0.0064009982161 -0.036504000425 0.0070805000141 -0.0072609963827 -0.031872000545
          -3.4500040783e-005 -0.0060000005178 -0.039597999305 0.0058404998854 -0.007472995203 -0.028162000701
          -0.0025605002884 -0.0063139977865 -0.035009998828 0.0013424999779 -0.0078129945323 -0.027560999617
          -0.0025204999838 -0.0078949956223 -0.031109999865 0.0032524999697 -0.0077249961905 -0.03444499895
        </DataArray>
      </Points>
      <Verts>
        <DataArray type="Int64" Name="connectivity" format="ascii" RangeMin="1e+299" RangeMax="-1e+299">
        </DataArray>
        <DataArray type="Int64" Name="offsets" format="ascii" RangeMin="1e+299" RangeMax="-1e+299">
        </DataArray>
      </Verts>
      <Lines>
        <DataArray type="Int64" Name="connectivity" format="ascii" RangeMin="1e+299" RangeMax="-1e+299">
        </DataArray>
        <DataArray type="Int64" Name="offsets" format="ascii" RangeMin="1e+299" RangeMax="-1e+299">
        </DataArray>
      </Lines>
      <Strips>
        <DataArray type="Int64" Name="connectivity" format="ascii" RangeMin="1e+299" RangeMax="-1e+299">
        </DataArray>
        <DataArray type="Int64" Name="offsets" format="ascii" RangeMin="1e+299" RangeMax="-1e+299">
        </DataArray>
      </Strips>
      <Polys>
        <DataArray type="Int64" Name="connectivity" format="ascii" RangeMin="0" RangeMax="77">
          0 1 2 3 2 1
          4 0 5 2 5 0
          3 6 2 7 2 6
          2 7 5 8 5 7
          1 0 9 9 0 10
          0 4 10 11 10 4
          1 9 12 3 1 12
          12 13 3 13 6 3
          5 14 4 15 4 14
          16 14 8 5 8 14
          17 11 15 4 15 11
          18 7 19 19 7 6
          20 8 18 7 18 8
          6 13 19 21 16 20
          8 20 16 22 9 23
          10 23 9 23 10 24
          11 24 10 22 25 9
          12 9 25 24 11 26
          17 26 11 27 28 29
          28 12 29 25 29 12
          12 28 13 30 19 28
          13 28 19 31 15 32
          14 32 15 33 32 16
          14 16 32 34 17 31
          31 17 15 21 35 16
          33 16 35 26 17 36
          34 36 17 30 37 19
          19 37 18 20 18 38
          37 38 18 21 20 39
          38 39 20 35 21 40
          39 40 21 22 23 41
          42 41 23 23 24 42
          43 42 24 22 29 25
          22 41 29 44 43 26
          24 26 43 45 44 36
          26 36 44 28 27 30
          30 27 46 29 41 27
          46 27 41 47 37 46
          30 46 37 32 48 31
          31 48 49 50 48 33
          33 48 32 49 51 31
          51 34 31 50 33 52
          35 52 33 36 34 53
          34 51 53 52 35 54
          40 54 35 36 53 45
          55 45 53 56 38 47
          37 47 38 38 56 39
          57 39 56 40 39 58
          58 39 57 54 40 59
          58 59 40 41 42 46
          47 46 42 56 47 43
          42 43 47 57 56 44
          43 44 56 44 45 57
          58 57 45 55 59 45
          58 45 59 48 60 49
          61 49 60 60 48 62
          50 62 48 61 63 49
          63 51 49 64 62 52
          50 52 62 63 65 51
          53 51 65 64 52 66
          54 66 52 65 67 53
          55 53 67 66 54 68
          59 68 54 67 68 55
          59 55 68 69 70 60
          61 60 70 69 60 62
          70 71 61 61 71 63
          69 62 72 72 62 64
          65 63 73 71 73 63
          64 66 72 74 72 66
          73 75 65 65 75 67
          68 76 66 74 66 76
          68 67 76 75 76 67
          69 72 77 70 69 77
          71 70 77 73 71 77
          72 74 77 75 73 77
          74 76 77 76 75 77
        </DataArray>
        <DataArray type="Int64" Name="offsets" format="ascii" RangeMin="3" RangeMax="456">
          3 6 9 12 15 18
          21 24 27 30 33 36
          39 42 45 48 51 54
          57 60 63 66 69 72
          75 78 81 84 87 90
          93 96 99 102 105 108
          111 114 117 120 123 126
          129 132 135 138 141 144
          147 150 153 156 159 162
          165 168 171 174 177 180
          183 186 189 192 195 198
          201 204 207 210 213 216
          219 222 225 228 231 234
          237 240 243 246 249 252
          255 258 261 264 267 270
          273 276 279 282 285 288
          291 294 297 300 303 306
          309 312 315 318 321 324
          327 330 333 336 339 342
          345 348 351 354 357 360
          363 366 369 372 375 378
          381 384 387 390 393 396
          399 402 405 408 411 414
          417 420 423 426 429 432
          435 438 441 444 447 450
          453 456
        </DataArray>
      </Polys>
    </Piece>
  </PolyData>
</VTKFile>
