<VTKFile type="PolyData" version="1.0" byte_order="LittleEndian" header_type="UInt64">
  <PolyData>
    <Piece NumberOfPoints="42" NumberOfVerts="0" NumberOfLines="0" NumberOfStrips="0" NumberOfPolys="80">
      <PointData>
      </PointData>
      <CellData Scalars="STLSolidLabeling">
        <DataArray type="Float32" Name="STLSolidLabeling" format="ascii" RangeMin="0" RangeMax="0">
          0 0 0 0 0 0
          0 0 0 0 0 0
          0 0 0 0 0 0
          0 0 0 0 0 0
          0 0 0 0 0 0
          0 0 0 0 0 0
          0 0 0 0 0 0
          0 0 0 0 0 0
          0 0 0 0 0 0
          0 0 0 0 0 0
          0 0 0 0 0 0
          0 0 0 0 0 0
          0 0 0 0 0 0
          0 0
        </DataArray>
      </CellData>
      <Points>
        <DataArray type="Float32" Name="Points" NumberOfComponents="3" format="ascii" RangeMin="0.0068018040067" RangeMax="0.039633297154">
          -0.0014644188341 -0.0396049954 -0.00031314554508 0.003293253947 -0.0062459888868 0.0053139259107
          -0.0070583410561 -0.006754997652 0.0033542667516 0.0030284938402 -0.0060000005178 -0.0010453499854
          -0.001770353294 -0.0061309966259 -0.0061329556629 -0.0069678328 -0.0064729931764 -0.0017763681244
          0.0016119130887 -0.011530000716 -0.00044653454097 0.0011059683748 -0.011927995831 0.0048545422032
          -0.0016621015966 -0.0062769982032 0.0073849172331 -0.0017736480804 -0.011394996196 0.0065028402023
          -0.00097375095356 -0.01188999787 -0.0053937155753 -0.0061913602985 -0.012022990733 -0.0016331496881
          -0.0062343720347 -0.012046996504 0.0027136432473 0.0015297043137 -0.038824994117 0.003074701177
          -0.00092086166842 -0.038150001317 0.003788836766 -0.0018671413418 -0.039253998548 -0.00018475647084
          0.00065070338314 -0.035857994109 -0.0032971564215 -0.0042258538306 -0.034443993121 -0.00017630033835
          0.0026374566369 -0.034017000347 0.0017261166358 0.00030130453524 -0.017091993243 0.00035227899207
          0.00048674398568 -0.017850998789 0.0046006077901 -0.0017432846362 -0.016767997295 0.005765681155
          -0.0013111570152 -0.01780699566 -0.0038663099986 -0.005192915909 -0.017253000289 0.0036258827895
          -0.0053521920927 -0.017553988844 -0.001609921921 0.0050583407283 -0.034625995904 0.0058718863875
          0.0011443133699 -0.038088995963 0.0063094198704 -0.0003297473304 -0.038114000112 0.0058441781439
          -0.0030083060265 -0.033341992646 0.0031635246705 -0.00057655340061 -0.032736990601 0.0059229671024
          -0.0040259240195 -0.028066996485 0.0036998752039 -0.0048843049444 -0.028799999505 -0.00054408743745
          -0.00046012559324 -0.029975999147 -0.0020281432662 0.0012233908055 -0.028405997902 0.0011717624729
          0.0021610723343 -0.029916990548 0.0057599451393 0.000699650147 -0.024298001081 0.0052305599675
          0.00024765054695 -0.022832993418 0.00065575685585 -0.0019819263835 -0.022104997188 0.0054757781327
          -0.0013223936548 -0.023971993476 -0.0031756612007 -0.0045196204446 -0.022610995919 0.0040993667208
          -0.0050597884692 -0.023162994534 -0.00092483067419 -0.0012292991159 -0.027406994253 0.0057423897088
        </DataArray>
      </Points>
      <Verts>
        <DataArray type="Int64" Name="connectivity" format="ascii" RangeMin="1e+299" RangeMax="-1e+299">
        </DataArray>
        <DataArray type="Int64" Name="offsets" format="ascii" RangeMin="1e+299" RangeMax="-1e+299">
        </DataArray>
      </Verts>
      <Lines>
        <DataArray type="Int64" Name="connectivity" format="ascii" RangeMin="1e+299" RangeMax="-1e+299">
        </DataArray>
        <DataArray type="Int64" Name="offsets" format="ascii" RangeMin="1e+299" RangeMax="-1e+299">
        </DataArray>
      </Lines>
      <Strips>
        <DataArray type="Int64" Name="connectivity" format="ascii" RangeMin="1e+299" RangeMax="-1e+299">
        </DataArray>
        <DataArray type="Int64" Name="offsets" format="ascii" RangeMin="1e+299" RangeMax="-1e+299">
        </DataArray>
      </Strips>
      <Polys>
        <DataArray type="Int64" Name="connectivity" format="ascii" RangeMin="0" RangeMax="41">
          0 1 2 1 3 2
          3 4 2 5 2 4
          3 1 6 7 6 1
          1 8 7 7 8 9
          4 3 10 6 10 3
          10 11 4 5 4 11
          5 11 2 12 2 11
          8 2 9 12 9 2
          13 14 0 15 0 14
          16 0 17 15 17 0
          18 13 16 0 16 13
          6 7 19 20 19 7
          9 21 7 20 7 21
          10 6 22 19 22 6
          9 12 21 23 21 12
          10 22 11 24 11 22
          23 12 24 11 24 12
          18 25 13 13 25 26
          13 26 14 27 14 26
          28 14 29 27 29 14
          15 14 17 28 17 14
          30 31 28 31 17 28
          16 17 32 31 32 17
          16 32 18 33 18 32
          33 34 18 25 18 34
          35 36 20 19 20 36
          21 37 20 37 35 20
          19 36 22 22 36 38
          21 23 37 37 23 39
          38 40 22 24 22 40
          24 40 23 39 23 40
          25 29 26 27 26 29
          41 29 34 25 34 29
          28 29 30 41 30 29
          30 41 39 37 39 41
          39 40 30 31 30 40
          32 31 38 40 38 31
          36 33 38 32 38 33
          34 33 35 36 35 33
          34 35 41 37 41 35
        </DataArray>
        <DataArray type="Int64" Name="offsets" format="ascii" RangeMin="3" RangeMax="240">
          3 6 9 12 15 18
          21 24 27 30 33 36
          39 42 45 48 51 54
          57 60 63 66 69 72
          75 78 81 84 87 90
          93 96 99 102 105 108
          111 114 117 120 123 126
          129 132 135 138 141 144
          147 150 153 156 159 162
          165 168 171 174 177 180
          183 186 189 192 195 198
          201 204 207 210 213 216
          219 222 225 228 231 234
          237 240
        </DataArray>
      </Polys>
    </Piece>
  </PolyData>
</VTKFile>
